/*--------------------------------*- C++ -*----------------------------------*\
| =========                 |                                                 |
| \\      /  F ield         | OpenFOAM: The Open Source CFD Toolbox           |
|  \\    /   O peration     | Version:  4.1                                   |
|   \\  /    A nd           | Web:      www.OpenFOAM.org                      |
|    \\/     M anipulation  |                                                 |
\*---------------------------------------------------------------------------*/
FoamFile
{
    version     2.0;
    format      ascii;
    class       volScalarField;
    location    "15";
    object      T;
}
// * * * * * * * * * * * * * * * * * * * * * * * * * * * * * * * * * * * * * //

dimensions      [0 0 0 1 0 0 0];

internalField   nonuniform List<scalar> 
26625
(
0.0606508
0.377405
1.40204
1.6381
0.0245675
0.182607
-0.00877053
0.132788
0.468412
1.64698
-2.02925e-06
0.848884
0.047157
1.58895
1.39153
0.0383724
1.93761
1.4871
1.59807
1.07729
0.0814083
1.02979
0.000107008
0.985535
0.113569
1.3556
0.851274
1.01913
0.199721
1.15939
1.54025
0.996569
0.0236758
0.971111
-0.000829398
0.000477488
0.427661
1.43233
0.319921
1.26295
0.660625
1.46452
1.61638
1.51734
0.233546
1.66443
0.579861
1.58329
0.437591
-7.06313e-07
1.62674
0.996994
0.932754
0.0765167
0.992314
0.344047
0.70724
1.56849
0.551049
1.48606
3.13144e-10
0.0380745
0.0074918
0.218876
1.44034
-3.00915e-09
1.15956
1.53614
0.310331
0.388246
1.43004
-0.00013641
0.567696
0.0215391
-1.9968e-05
1.57989
0.0033023
4.54545e-07
0.951948
1.6391
0.947409
0.572015
0.789746
1.37312
1.55042
1.56162
0.00101027
5.24861e-06
0.747282
0.911037
1.97152
1.48351
0.467931
1.52204
1.0725
0.814715
1.03576
1.22611
1.37833
0.968605
0.652426
1.53759
1.50842
1.40258
0.213191
1.03834
-1.06827e-07
1.37932
0.973648
0.0655471
1.64847
0.308658
1.08973
1.38412
1.37071
1.51331
0.00111569
0.000321121
0.469291
1.46884
1.40031
1.15698
0.000294963
0.811422
0.566457
1.48064
0.907279
9.49512e-08
1.13824
1.1506
1.42325
1.29412
1.47298
0.0725509
-0.0780792
1.35983
1.3779
2.26206e-09
0.799548
0.456464
1.20736
1.74015
0.408479
1.01709
1.59658
1.44504
1.11011
1.5701
0.421783
-5.54878e-08
1.49168
1.01723
1.24456
0.954402
2.32657e-09
1.12655
0.954011
1.47708
0.983526
1.52548
1.72718
1.03985
1.15924
1.21124
0.000294675
0.0368503
1.5642
0.90225
0.721101
-0.000124203
0.980503
0.000403655
0.920051
1.0923
-7.52299e-10
1.78853
0.85441
0.937529
1.32216
1.98956e-06
0.947985
0.496931
2.11997e-06
1.56118
0.986745
0.857844
1.09379
0.950095
1.62117
0.899616
0.999266
1.01526
1.37237
1.45477
1.46564
0.0328045
0.916374
0.510131
1.51179
-8.18108e-05
0.288062
1.46758
-0.00010151
1.72254
0.000133494
1.11069
1.80948
1.49181
0.189822
0.927579
9.7736e-06
0.76248
0.0112533
1.02522
0.0224104
0.957342
-0.0581293
0.450776
1.31607
1.11818
1.46759
2.1956e-05
-9.17412e-07
0.550186
1.70443
1.46699
0.000122386
0.993247
1.10534
1.00142
1.40096
1.69238
1.42694
0.51043
-3.88888e-05
0.868059
1.59279
1.30492
-1.14706e-06
0.571925
1.57094
1.32243
1.45314
0.00076238
1.06652
1.06384
1.31212
-0.00029002
0.000309089
1.47592
1.57079
1.57744
-0.00119627
0.965949
1.19219
0.481756
3.06607e-09
-0.00215615
1.03476
0.676494
0.0456541
1.71611
0.792506
0.967802
1.36695
1.55178
0.000790404
0.00343044
1.02776
1.5065
1.83495
1.51684
1.26805
1.24917
0.341663
4.64554e-09
1.07838
1.40115
1.20407
0.312633
0.726944
-1.6555e-05
1.68729
1.02129
1.01398
0.00164307
1.50213
0.014969
1.55815
0.497042
2.27358e-07
0.403919
1.3058
1.54778
1.21279
1.88427e-06
-5.67827e-09
1.16068
-7.14648e-05
1.42711
0.863351
-0.00221051
1.46081
0.0572615
0.437534
3.37186e-09
-4.98365e-05
0.177296
-1.08532e-06
0.849008
0.589824
-1.41452e-10
2.04776e-08
1.40629
1.20714
0.791782
1.27265
0.958822
1.74213
1.4894
-2.0098e-09
1.40536
0.838382
0.592107
1.88141e-06
0.993405
0.931988
1.53617
0.402445
1.38662
0.706431
0.083284
0.889384
1.21318
1.64058
0.428146
1.12682
0.877644
5.24217e-08
0.829533
1.64185
0.746932
0.969511
1.38734
0.959959
1.31493
1.03498
1.53065
0.191836
-0.222316
1.52246
1.05886
1.76253
1.69455
1.11968
1.01901
1.094
1.57952
1.20853
1.63261
1.02741
0.000205952
0.191941
0.910007
1.47971
0.967282
1.63594
1.64789
1.03924
0.662278
1.57816
1.40825
1.27814
2.18287e-07
0.0784393
0.961713
0.968918
3.50382e-07
1.93674e-06
1.57605
1.01947
1.03156
1.03063
0.187813
0.748217
0.151304
1.0014
0.314679
0.77466
1.79039
-6.12728e-08
0.0408008
0.61302
1.83297
0.181658
1.63099
1.59816
1.19448
0.988222
1.50671
1.21907
1.02448
1.59819
0.000857113
0.0278243
1.423
1.27295
0.428978
0.403703
0.842379
1.63742
1.67922
0.00885885
-2.71036e-05
0.539315
1.58396
0.49655
1.31915
1.4696
-0.00122277
4.04545e-05
0.00169607
1.75451
1.07325
0.858363
0.0137166
1.13006
0.157728
7.95212e-10
0.815629
1.61922
1.64431
0.163858
0.00217841
1.45409
1.2813
-2.5459e-06
1.36327
1.28448
1.74885
1.14266
3.59323e-06
0.514364
0.980205
1.64947
1.15483
1.6304e-07
1.42146
1.54683
1.637
-0.135391
0.823747
-2.97565e-06
1.14092
0.335456
0.795145
0.881168
3.28586e-07
0.273908
1.33873
1.57237
1.54926
0.213528
1.55384
0.015829
0.988989
6.86992e-08
1.01922
1.76401
2.94499e-06
0.000131734
1.9981
1.12597
1.35581
0.099668
-0.00241335
0.914885
1.00844
0.938944
6.3997e-06
1.52219
0.0109989
1.40883
0.000492231
1.21895
1.03448
1.3589
0.857672
1.59653
0.0435115
1.31749
0.974212
0.0423774
1.57051
9.03761e-05
1.55628
1.48975
1.58205
1.38231
0.206258
1.54592
1.20333
1.3551
1.53513
1.00666
-1.91227e-06
0.84781
0.958681
1.17849
-0.00292569
1.67023
1.12788
1.37605
1.35924
0.00376746
0.00372463
0.902752
0.56611
0.0934262
0.968324
1.00512
1.73532
-8.80402e-09
1.1424
0.85074
0.000824179
0.926974
1.38004
0.992073
0.0466058
0.00209076
1.41276
1.76151
0.863301
1.14127
0.995416
1.44943
1.2863
1.54884
0.134969
0.66252
1.20822
-1.55084e-05
1.53546
0.475289
1.09057
1.25755
0.549076
0.00142884
0.00179382
1.05077
0.0578337
1.41019
1.04672
0.267015
-0.0962671
1.01757
0.912247
1.67445
1.12471
0.733971
0.816761
1.20761
1.41172
0.877975
1.14047
3.55921e-06
1.1178
1.47132
0.00210695
0.211299
0.137952
1.73549
2.31124
0.868341
1.45056
7.2315e-09
0.91899
0.000747368
1.19214
0.000386076
1.00783
0.719651
1.74437
0.771705
0.496684
0.889532
0.268861
0.900615
1.69193
0.205216
1.37432
1.09749
5.37522e-06
1.01216
1.34067
0.990312
1.06412
0.999187
0.184268
0.00194724
0.771919
0.954609
1.76958
0.000102526
0.408715
1.61447
1.26335
1.0769
0.597727
1.13914
1.20951
0.235847
1.08463
1.3953
0.355089
1.2747
1.30082
0.0120939
1.2031
1.23532
0.000599382
0.781959
1.07188
0.0442954
1.49625
0.274797
1.83088
0.785653
-0.121931
-0.000125886
0.69817
0.5756
0.241668
1.3318
-7.79847e-05
1.09048
0.416288
1.1157
1.53134
0.000745557
0.0229871
0.975308
0.042814
0.279184
1.58026
0.662072
0.393889
0.0290893
0.000528208
0.952089
0.0944462
0.000228707
1.28844
1.55843
1.91437
0.799055
0.905494
1.40901
1.24847
0.00514867
1.30134
1.39148
0.0181098
1.03881
-0.192749
1.31315
1.83315
1.72612
4.33793e-07
0.658604
1.10922
-5.30281e-05
1.31688
5.40811e-07
-7.93147e-07
1.04066
1.55661
0.887943
0.000177566
1.44474
0.00514525
0.783978
0.000459923
0.714751
-1.29273e-07
1.56012
1.4275
0.962683
0.943494
-1.21887e-05
-2.59848e-08
0.123493
0.505443
-9.27785e-05
0.120647
1.20914
1.18263
1.11121
0.634673
0.907701
1.40395
0.187666
1.18875
1.8479e-06
1.32452
0.000874936
1.02744
0.871973
0.975302
-1.55074e-07
1.64892
0.00699406
1.00076e-08
-6.82983e-08
0.00158431
3.78567e-08
1.18655
1.81939
1.39125
0.456652
1.47357
0.432882
-1.94767e-09
1.54306
1.202
-2.14894e-06
1.68659
1.0064
1.4904
0.111309
-0.0156796
0.501062
1.51868
0.00554158
1.47941
1.53626
0.601459
1.53221
1.43281e-07
1.03497
0.799677
1.21182
0.888108
0.14064
3.80772e-06
1.1693
1.58411
1.39241
0.952479
1.27416
1.07288
1.51096
0.0093479
0.416168
0.458555
0.283686
0.734657
1.44038
1.63838
0.0153803
1.25695
1.43724
0.898196
0.526704
0.991664
-2.85708e-07
0.00011837
1.05463
-0.000233273
0.0668433
0.067402
1.81906
1.80937
1.80916e-07
1.50869
0.635549
0.906084
0.0681799
1.94192
1.02345
0.0207684
0.939967
1.48774
1.16436
0.678118
1.05882
0.942387
-0.000397876
1.18989
1.69183
0.262668
1.1634
1.03827
1.41494
1.47837
1.38473
1.38245
0.355882
0.81822
1.46355
1.02701
1.46098
0.0246355
1.04638
1.58241
0.143355
1.41271
2.66442e-08
0.875258
4.37414e-05
-0.000671071
1.72757
1.01034
0.0150389
1.10494
0.0015151
0.493101
1.11753
0.717982
0.255086
-3.83288e-10
-2.05324e-05
1.42819
1.85008
-1.23396e-05
1.05944
1.04043
0.00443964
0.991097
-0.105225
0.634736
1.70332
1.54941
1.13008
0.00634073
1.23332
1.76772
1.25311
3.50661e-05
1.54809
0.00242629
0.791298
1.30843
0.912518
0.0132507
0.00316438
1.42817
0.473747
-2.8393e-05
1.48976
1.18226
1.651
0.0197328
1.79402e-09
1.86659
1.40577
0.598601
0.655419
0.456977
1.4321
-0.0256518
0.000403001
0.26325
0.451609
0.591043
0.863375
1.62204
-2.97655e-05
1.46537
5.98174e-08
0.952972
0.0378594
0.0287838
1.54193
0.226092
1.59156
1.6749e-08
0.993488
1.13625
0.513132
0.110814
0.438334
1.49247
0.701174
1.3
0.682015
1.4215
-4.07841e-07
0.640275
0.00411107
1.63805
-1.25143e-05
1.02773
-2.5796e-06
0.087079
0.988284
1.78307
1.45059
0.659411
1.51552
-5.73368e-06
-0.000208215
1.5479
1.56739
0.770395
0.114412
-0.0386219
2.17703e-07
1.60104
0.217694
0.596922
-3.64366e-05
-3.13794e-09
1.05965
1.01426
-5.69941e-06
0.544534
0.0408699
1.39827
1.03941
0.743024
-6.24828e-09
0.907976
-1.95051e-09
1.13131
0.741623
1.88359
0.928015
0.543415
1.15487
1.87458e-05
1.23312
1.52932
1.45032
0.426144
0.000936001
0.110729
-5.00198e-09
0.889482
1.53403
1.07975
1.05462
0.27946
-2.97646e-05
1.13026
1.36644
0.207714
1.01935
3.69944e-08
1.31495
-9.43204e-07
1.11219
1.3825
0.580978
0.0147392
-0.00104527
0.00764677
1.36987
1.00746
0.84694
1.26609
-0.00123768
1.24463
1.00103
0.97792
0.899572
-0.000232695
-7.95535e-09
0.993058
0.414829
1.37638
0.110177
0.358429
1.30768
-0.0333433
0.437155
0.973472
1.94233e-07
1.02632
0.953468
1.01746
1.06584
0.192257
0.0015364
1.37425
-1.87879e-07
0.000145913
0.380922
7.53971e-09
1.09999
1.92727
0.0293726
1.36596
0.0857066
1.33246
0.488486
-0.0309186
0.0937451
-3.33744e-05
0.419747
1.17326
0.0735926
0.0861084
1.0889
1.041
1.63429
1.09433
1.03307
0.554824
8.96417e-05
0.4363
1.60755
1.46853
1.49145e-06
0.824626
1.09314
-3.3879e-07
0.965789
0.00737761
0.00300916
1.71128
1.05781
1.78202
0.996412
0.0411312
1.3895
0.987485
1.48923
1.63107
0.549421
0.765863
1.50251
1.00109
6.69378e-05
0.878211
0.959571
0.045198
0.817096
1.31311
0.131777
0.999069
1.00624
0.291701
1.71172e-06
0.772582
0.90574
1.51402
1.18178
0.684998
1.0556
0.180705
-7.72878e-05
1.64313
4.01163e-07
0.0269455
0.000139595
1.46412
1.48634
1.47485
1.46612
0.000726917
1.59008
0.000169854
3.06633e-06
1.26591
0.688998
1.08426
0.80471
1.50827
1.49415
0.905303
1.02097
1.67658
0.274049
1.64682
0.00194055
0.868978
1.44887
1.29536
0.392668
6.62198e-07
1.37846
-2.15129e-05
1.50852
5.52491e-09
0.975683
0.937459
0.176252
-2.56161e-06
0.928918
1.52266
0.997474
0.207341
1.00044
3.83008e-05
1.03662
1.3836
1.10941
1.49073
1.29867
1.05945
7.16392e-05
0.620542
1.42726
4.72172e-07
1.60798
1.48998
1.28139
-1.06099e-08
1.67848
1.50452
1.08653
1.39052
1.11139
1.77403
1.51766
0.00595418
0.000228016
1.41869
1.01713
1.38757
1.32483
0.0232313
5.08439e-05
9.63924e-06
0.03522
1.52774
1.28934
0.307623
0.0402174
2.15935e-06
1.1012
0.0848642
-3.79152e-05
1.44984
0.649248
0.138296
1.23755
0.822341
1.13009
2.03174
1.51499
0.994992
1.06557
0.00482989
1.19576
1.77901
5.57413e-08
1.95501
1.15413
1.49385
1.02171
0.19236
-1.90768e-07
0.0482232
1.70756
1.04934
0.000511942
1.36596
1.82072
1.67063
0.933686
1.37099
0.479063
-2.56335e-07
1.05219
1.53459
0.9728
1.71678
1.23067
0.00971703
1.64518
0.587723
0.518406
0.732428
1.00355
0.010782
1.26802
0.00552371
1.67694
0.00953182
0.0460123
0.79188
1.28207
1.55897
1.48196
0.878937
1.94798
0.443836
-2.00461e-07
0.671718
1.49766
0.82121
0.961669
0.902782
0.00274741
1.23425e-08
0.00228318
1.4832
0.890406
0.666983
0.00801006
1.12257
0.762566
1.40047
0.0779484
0.987841
1.04252
0.291364
1.5846
1.95604
0.00101697
-2.64907e-09
0.357774
0.522215
0.95061
1.09308
1.02869
1.64225
1.61614
0.868817
1.62233
1.48711
1.61258
0.0143133
0.119316
1.40716
-0.00534863
-0.000159044
1.49814
0.963959
0.698327
1.73966
0.886119
1.52401
0.207106
1.74685
1.58879
1.62097
1.47104
2.14175e-06
0.0661665
1.62209
1.84955e-08
-0.116094
0.499391
1.31415
1.4516
0.27891
1.01914
0.337293
0.0874732
-2.31713e-09
1.05376
0.528849
1.66746
1.4811
1.4652
0.601711
1.79379
0.694199
0.0284255
-0.00301308
-3.62085e-12
0.857496
1.31064
0.884209
0.242942
3.64113e-08
0.99432
1.17524e-10
1.19888
-2.74042e-07
0.396914
0.849192
1.53265
-6.24226e-05
3.91956e-06
1.23925
0.929748
1.01604
1.69829
1.4371
1.49743
-2.72868e-05
0.057855
0.945857
1.09578
1.63859
0.172154
0.951422
1.07583
0.907188
1.35697
3.78111e-06
1.05251
1.49596
1.69682
0.962192
1.09114
1.57071
0.0831999
1.06655
0.92572
1.51594
-0.000258545
1.66727
0.000142875
0.818707
1.00593
0.128411
1.04166
0.595476
0.54647
1.7986
0.997701
0.106168
0.61212
0.351911
0.279957
4.39708e-07
0.995174
1.56555
0.00335011
-3.53319e-06
-9.27502e-07
1.33146
0.978426
1.3088
1.51223
1.12672
1.56055
0.200148
-5.06832e-09
1.55984
1.57135
0.99371
0.300458
1.26251
1.63973
0.652867
0.841431
1.58812
0.065902
1.05792
1.36109
1.04616
0.912844
1.68521
0.18296
-0.15924
9.37984e-08
1.05018
1.55636
1.33174
0.0964965
0.943411
1.22231
0.948109
0.770485
5.11236e-05
1.22187
1.52587
0.00141173
0.750534
-6.21394e-09
0.00355665
0.174698
1.38993
1.80466
1.54425
1.58936
-1.05744e-08
0.87204
0.968425
0.00103551
0.959539
0.36737
0.493608
1.45275
1.47671
0.783685
0.300812
1.55765
1.45244
0.012257
0.800622
0.000480665
1.21784
1.00825
0.211835
0.552832
0.987076
1.0811
1.41225
1.44511
1.08245
1.39907
1.56562
1.01526
1.66802
0.00373037
1.51942
0.747516
0.00408544
0.698848
1.67916
0.97542
1.69242
0.863014
1.48589
0.972611
0.76701
-0.000302312
0.939149
1.42014
0.00044917
8.84064e-07
2.05937
1.20589
0.250055
0.404448
1.03035
1.09787
0.463204
0.696165
1.38053
0.927312
0.127522
0.990637
1.68834
1.6069
0.791405
1.49996
1.22718
0.813719
0.22581
0.854539
-1.73498e-06
1.44692
0.610757
8.57396e-06
1.95402
1.39805
1.2984
0.0119492
0.981823
1.42868
1.5688
0.709125
0.000408125
0.737886
7.76976e-06
0.444522
0.0846562
1.45329
1.217
0.52535
1.04562
0.832707
1.63642
5.60875e-05
0.344988
0.191264
0.334635
0.603705
0.956993
-8.26711e-06
1.61638
1.22803
-8.98116e-10
0.246146
1.39726
1.6727
0.970448
-0.00261694
1.1228
0.930051
-9.98718e-07
0.951568
0.000110974
0.6783
-4.85595e-07
1.35456
-0.00191475
1.03575
0.887827
1.60071
0.782349
1.20278
1.34407
-6.28115e-05
0.00303004
0.462443
0.0547043
1.04759
1.10381
0.662354
8.23453e-06
1.59227
1.30387
0.930054
0.000140752
1.13978
0.968116
0.937022
0.970629
1.27247
0.250322
0.725852
0.0416437
1.95345
-1.03011e-07
1.23837
1.07521
1.63431
1.52859
1.3596
6.70277e-06
1.45203
-0.000182763
0.119656
1.51929
0.952634
7.51755e-05
0.847414
1.13312
0.229415
0.728672
1.44746
0.385849
0.409769
1.51666
1.04095
0.0316268
1.76598e-06
0.00130074
0.855895
1.18389
1.02114
0.849687
1.36287
0.0286514
0.000568996
0.376744
0.37775
1.41747
-2.24166e-05
1.94369
0.952675
1.27766
0.596305
4.42536e-05
3.13902
1.22001
1.39904
1.7525e-06
0.431854
1.41694
1.62748
-6.22994e-07
1.51895
1.80708
1.23701e-06
0.101561
0.00160372
0.767064
0.856084
1.31931
1.71793
1.50618
1.26214
0.729267
0.901718
0.809884
0.955426
0.731614
0.164708
1.41027
1.37367
0.95824
1.02331
1.47303
1.22157
0.586432
0.89525
0.0340131
1.66518
0.00104287
0.500884
1.33385
1.1521
0.0232137
0.978558
0.957509
0.0325675
1.03781
1.11674
-3.88254e-06
1.31395
1.35058
-0.000206997
1.33717
-1.0182e-06
1.27709
0.614469
1.65716
7.22036e-09
0.69334
1.4315
0.655695
0.884844
0.000725417
0.372327
1.62099
0.729165
1.52847
2.6518e-05
0.0387359
1.39629
-1.14864e-05
1.48768
1.12489
-0.00142555
7.92977e-09
1.91709
1.48103
1.03153
1.33082
-6.85439e-05
7.92729e-05
0.000367046
-5.55131e-09
0.0778758
1.09104
1.07063
0.5792
0.330608
1.4287
0.000260075
0.399417
-5.43906e-06
0.165951
1.68428
0.000365497
1.45268
1.12987
0.966856
1.15027
0.0265483
0.000939862
0.580073
2.06121e-06
0.685092
1.13938
0.842236
1.04835
1.32986
1.73943
0.994395
0.330635
1.88201
1.06923
0.431487
1.52778
2.60385e-08
0.189721
0.965321
1.47541
0.793885
0.000429365
1.02454
0.65552
0.00184227
1.0285
0.00174064
0.53544
1.00282
-2.31617e-05
6.98713e-07
1.44646
0.292883
1.04682
0.000577453
1.11037
1.12483
2.32335
0.0758468
0.000814594
1.23007
1.31231
0.253234
-5.63626e-10
0.808935
1.64144
0.986145
1.00514
-7.99858e-09
0.826446
1.53342
-0.000344254
1.0551
4.55149e-06
1.28359
-7.2172e-10
9.99002e-07
7.21544e-09
-0.0872721
1.40417
1.37732
0.967953
1.7042e-07
-3.91765e-06
-5.66292e-09
0.181482
0.000398918
1.33784
1.77538
0.991262
0.0176015
0.029195
0.591482
0.974464
1.5222
0.894453
1.46087
1.14897
-2.04846e-05
0.988048
1.09663
2.04751e-06
0.0124173
0.142596
2.37362
1.75961
0.0215849
0.686382
1.46849
2.12465
1.57996
1.40093
4.27619e-05
0.755013
-0.000193425
1.41833
0.000718174
1.59922e-09
0.0104272
0.122087
0.992632
0.000157723
1.06349
5.71253e-06
1.46502
0.605731
1.24721
0.0555994
0.957446
1.07305
0.0026396
1.5547
1.01757
0.211039
0.677582
0.00019327
1.39942
1.43164
1.29308
0.525477
0.584492
1.60712
0.0277251
1.04338
4.91156e-07
-3.93815e-08
0.992055
0.960599
3.25254
0.817778
1.20528
0.861176
1.03509
0.874376
0.00613992
0.0598342
0.414658
0.081969
1.12458e-07
1.66243
1.06354
1.54019
1.67684
1.60788
0.937967
1.60589
0.323296
1.68451
0.835829
0.186506
1.20483
0.330264
1.03228
1.09598
1.08287
0.461131
1.14815
0.00535955
0.00850958
1.37946
1.13071
1.16383
2.41018
1.01967
0.00166933
1.35653
1.01431
0.13452
1.43573
1.55517
1.71507
1.36007
-2.50887e-05
0.709746
0.0422439
0.97856
1.05321
0.993924
7.69507e-07
0.990708
1.61283
5.37277e-06
5.13328e-08
0.493849
0.0282211
0.0802446
0.560787
0.126185
1.68853
1.50259
-0.00117321
1.51135
1.69329
1.37601
1.2143
1.35723
-7.36608e-07
0.0124119
1.00433
0.196886
1.89419
1.79158
0.824914
0.00547143
1.14297
1.52
0.72975
1.06586
0.101255
0.545022
1.03009
0.00193927
-0.000429471
1.03803
0.170912
1.43185
1.48507
1.34317
0.442069
0.892886
0.818233
1.31816
1.65402
0.278969
1.54675e-05
1.0262
0.0389809
0.837387
0.993031
0.658539
1.40455
1.50574
0.114391
1.31565
0.378324
1.4975
0.0077561
0.775375
0.939045
1.09801
0.0022088
2.38245
1.51287
1.06118
-2.02191e-08
0.995066
0.478641
1.04439
0.715767
1.72206
1.63405
2.091e-08
0.855947
0.871141
1.52535
-0.000238162
1.7195
1.75804
-5.8958e-06
1.26371
-5.46191e-08
0.12904
1.09203
0.728708
1.13487
1.05015
8.44193e-05
0.87661
1.10584
0.380303
0.175499
1.51569
1.31934
0.767251
3.83843e-05
1.47803
1.82578
-1.73088e-06
9.37565e-07
2.06245
0.231839
-7.27767e-10
0.594323
0.642924
1.00833
0.343928
9.46692e-07
1.00413
1.07665
1.65127
1.249e-05
1.75477
1.64778
0.0282938
0.0418374
1.83569
0.583968
0.0267785
1.7936
4.57821e-05
1.42751
0.67245
0.496572
1.37439
1.43377
1.34984
0.819088
0.502455
0.428208
1.15043
0.978021
0.673665
0.692774
0.37321
1.98259
0.000498072
1.49657
-0.00133634
0.819126
7.73874e-06
1.78042
0.887892
1.62894
1.34367
0.717995
1.02421
0.886411
0.0719593
0.207053
1.03985
0.267432
1.00327
0.556735
1.20955
-1.64369e-07
-1.50324e-06
1.14622
0.518692
4.65901e-09
1.45205e-05
0.539136
-0.183922
1.25281
1.10094e-05
1.67225
1.39424
1.48767
0.821922
1.5172
1.47858
1.47952
-7.15727e-07
0.0367207
0.736589
1.66623
0.533235
0.730279
0.00564538
0.986734
-1.76504e-05
0.0969218
-9.2729e-08
0.396662
1.03947
2.06476
1.54972
0.651691
-1.90039e-07
1.14873
1.20077
1.54392
1.48536
1.51037
0.987767
0.88444
1.79344
1.47432
1.07052
1.19642
1.14569
1.01212
0.865864
1.6644
1.57058
0.932258
0.544756
-0.000932113
1.10993
1.02973
-0.00409944
1.6211
1.59173
1.17023
1.02074
0.00415433
5.08847e-06
1.37787
1.09851
0.903456
0.975671
1.53877
1.50965
1.43412
0.961075
0.148846
0.896249
1.17541
-4.86936e-08
1.6285
0.777689
1.34176
1.60366
0.507331
0.569327
0.464359
1.55129
1.50216
0.778323
0.957257
3.53935e-08
-0.000102076
1.26081
0.0740984
1.01875
1.20849
1.26249
6.61254e-07
0.00654678
0.128996
1.22713
0.448705
0.05603
1.47043
0.160137
0.550978
0.340823
1.11135
0.923668
0.699901
0.00187745
1.28439
1.40623
1.39012
0.518749
0.0148649
0.656554
0.833335
0.425216
-0.00149877
1.17655e-06
1.25101
1.043
1.40147
0.00436118
-1.36307e-06
0.0528748
0.443908
1.19905
1.11916
0.282059
0.000269283
0.00249292
0.685369
1.31465
1.63915
0.397895
1.50388
0.933671
0.455854
0.0966852
0.755406
-0.000103534
0.347292
0.0568254
0.571089
1.6014
1.01052
0.034677
0.000336454
0.969654
-0.0099238
1.29106
1.01368
-0.000583218
1.01139
1.10677
0.508109
1.43987
1.01836
0.0473586
0.817104
0.0347705
0.0698427
1.64341
0.00225619
1.8356
0.00221238
1.12036
0.0225148
1.49556
0.972892
1.32998
-0.00012371
0.698332
0.0176973
1.02645
1.55316
0.571992
0.0542669
1.05456
0.0101163
1.44908
1.13071
1.62663
0.820884
0.995114
1.53291
0.00114021
1.69272
0.711096
2.03361
1.36661
0.0156417
-0.00116471
1.70889
3.82638e-07
-1.48854e-06
0.756265
0.0704843
0.206358
1.41109
1.55297
1.70007
1.8139e-07
-0.00111056
0.935509
0.986454
0.000388282
-6.56608e-05
1.56135
1.25658
0.823407
0.342158
1.14201
4.32319e-07
-1.25001e-07
0.294781
1.44868
-9.67655e-07
0.94364
1.58642
0.799847
0.98844
1.53063
1.8091
1.10739
1.09763
0.0152849
0.00254926
1.10692
0.0712957
0.0032991
1.25705
0.0196741
1.25655
1.61118
0.678614
1.1815
1.64355
2.83386e-09
0.181265
1.31976
0.00626141
1.40692
0.612784
0.186283
0.220197
0.885317
4.65763e-07
1.67175
1.52195
0.032063
0.857106
1.5678
1.56772
1.00373
0.812597
0.618856
0.347525
0.718189
0.421463
1.46867
6.22629e-08
0.318928
1.02283
0.675179
0.925109
2.108
1.29369
1.01732
-1.13396e-05
0.917482
0.00150292
-1.21224e-06
-0.000597937
1.42205
0.595464
1.04391e-06
2.94621e-09
0.104668
1.53972
0.0804304
0.164106
1.49253
1.09642
-3.12698e-09
0.869866
1.76274
-6.85965e-10
0.150462
0.852004
0.630576
1.23548
0.909305
1.52058
3.07366
0.700282
1.37314
0.545835
0.990442
0.3865
1.67482
0.426097
0.02252
0.925092
0.36998
0.325623
1.54033
0.554589
1.0554
0.973907
1.04139
1.33157
1.18899
0.444196
1.00389
0.977781
3.67108e-06
0.968538
-8.48981e-07
0.367221
1.51742
0.129901
0.966688
7.03017e-06
0.115001
0.0603688
0.000216877
0.0476145
0.00748322
1.70238
0.652344
-0.0764947
0.958146
1.06128
0.000134915
0.619665
1.47369
1.44749
1.42402
1.62934
1.55214
1.25533
0.897201
1.04057
1.6135
1.51824
1.89838
0.308972
1.40795
1.31272
-8.93057e-07
1.48321
0.974646
1.11499e-05
0.462349
1.02373
0.66248
0.527524
0.00357157
1.17474
2.11032e-06
0.00137208
-2.69256e-07
0.829494
0.977703
0.00226368
0.949594
0.21651
1.58322
2.24495
0.834854
1.55451
1.36106
1.97115
1.24974
-1.67305e-06
0.87012
0.702812
0.610979
1.11397
8.53316e-08
0.412164
0.0159806
0.801707
1.02943
1.16343
1.19723
-0.00134541
-2.63351e-08
0.705139
0.662844
-2.49912e-05
0.128246
1.83528
1.41058
1.50662
-1.40443e-08
0.952837
1.54266
0.095326
0.358921
1.32852
1.21605
0.434452
4.72135e-05
7.40964e-08
0.00100141
-2.47284e-06
2.6488e-05
0.942769
0.0716656
0.00681839
1.45318
1.83087e-07
-1.15933e-05
1.0299
0.979443
7.60067e-09
0.962087
0.992093
-3.38711e-07
0.000565105
0.345248
1.6919
1.88651
0.0974263
-1.24284e-05
1.0949
0.349168
0.916277
0.315575
1.40454
0.00463444
-8.96031e-05
-3.41981e-06
1.39893e-06
0.0011669
0.372621
1.2526
1.75031e-05
1.30035
1.3633
1.7948e-05
1.2355
0.0252375
3.87005e-06
0.70714
-8.55784e-05
1.15437
0.0100355
1.46379
0.000481343
0.0685461
0.00272089
2.12085e-07
-9.30361e-08
0.000163027
1.68315
1.51977e-05
0.854099
0.36886
1.79404e-05
0.197263
0.976165
1.07674e-07
0.0550115
1.6219
1.43915
0.846748
0.519445
0.715498
0.99375
0.578727
-1.09026e-07
1.78691
0.968962
2.0117
0.0264635
0.906344
1.16575
1.437
1.01772
0.904395
6.41283e-05
0.523053
-1.42138e-06
0.748182
0.936587
0.60096
1.70665
-1.45791e-05
0.059793
0.529498
-8.35186e-09
0.976058
5.08023e-06
1.35326
-0.0260815
1.78677
1.60406
-1.37693e-06
2.00085
1.48943
0.96064
6.68766e-08
0.924364
1.04529
1.57297
1.38582
1.41605
1.59164
1.69356
1.72851
1.18439
1.50505
-4.09432e-06
1.66689
1.0197
1.03671
0.918956
0.294028
0.00611055
0.00477943
2.92907e-06
1.02756
7.79226e-07
1.04643
1.45379
0.127318
0.0417164
0.339326
0.612111
-0.118988
1.45435
0.857145
-4.18977e-07
1.03289
1.19971
-0.00191254
0.095336
1.48001
1.35734
1.16438
0.0650013
5.78283e-05
1.03975
0.997432
1.90837
0.989848
0.914587
1.36543
0.00493514
1.03834
0.77013
0.448712
0.0964463
0.954596
1.36859
-2.69431e-06
0.0232848
0.176211
0.857327
1.90883
-0.000243671
1.48158
1.8329
0.371927
1.03327
0.414771
0.719351
1.00244
0.0079672
-6.69655e-06
1.52891
9.74522e-07
1.43682
-0.000105995
0.946917
1.80534e-08
1.45521
0.498024
4.80603e-10
1.55494
0.93139
-5.87416e-07
0.331134
1.04739
1.39412
0.916016
1.11522
-1.40074e-05
0.862009
0.925645
0.0531802
1.541
1.10616
1.11896
-8.09364e-10
0.717871
0.994338
0.49851
1.0879
-0.00818851
0.929116
-9.42247e-06
-0.00178491
0.949624
0.979427
1.36968
1.55187
-8.12031e-06
1.19731
1.39882
-0.000559406
0.4153
1.92159e-06
0.717242
0.0259386
1.02432
1.37407
0.947432
1.26651
1.54816
0.75847
-0.000488838
1.32922
0.90461
1.02198
2.14846e-05
1.22965
1.06332
1.36614
2.77837e-09
-0.00278971
0.322338
0.228676
0.962001
0.95059
1.94592e-06
0.077533
1.57028
0.463512
1.11322
1.03922
1.53098
1.57796
0.254426
1.48628
1.28729
0.0251842
0.0533701
1.7095e-06
0.877555
0.998989
1.05333
0.199427
0.0153027
1.49592
-1.4934e-09
1.39735
1.50724e-05
0.342222
1.04923
1.37903
1.47404
1.51321
1.30956
1.39502
1.66323
1.29235
0.976186
0.00475067
-0.147526
1.28285
1.07294
0.0365505
1.54508
-2.0177e-09
1.01325
0.974761
0.000211273
1.49315
-0.148255
0.00152004
1.02338
1.52942
1.06932
-0.141387
0.959998
1.7629
1.60153
0.0933928
0.213058
2.56826e-05
0.166735
1.17404
1.62082
4.63067e-06
1.39815
0.908275
3.88336e-05
0.992555
1.59482
0.916822
1.41695
1.03877
0.000444397
0.905425
0.525393
-0.0822167
0.901292
0.000241213
1.73697
0.903976
1.6032
1.52895
0.50525
1.52512
1.75862
-2.39475e-05
-0.102086
1.19278
0.969853
1.53179
1.4703
1.50654
0.00298003
0.975549
3.44155e-08
1.01555
1.68554
1.6681
0.369753
0.223186
0.203595
-4.22299e-07
0.651097
1.43717
2.67061e-08
0.662152
-1.60729e-07
-2.4718e-06
1.80742
-0.000143392
1.56399
0.192866
1.24826
0.58806
0.948896
1.81233
1.04028
0.821565
1.02199
0.0752942
1.16498
-5.24253e-05
0.0431472
0.000151678
1.75527
0.0486531
0.105555
2.06063e-08
0.38079
-4.48374e-06
1.08104
0.226793
-2.56358e-06
1.09037
-1.80198e-07
1.32572
1.45409
1.50752
0.583017
3.43055e-07
0.641478
1.37269
0.631952
1.4564
0.097268
0.0645366
0.687911
1.20132
0.96162
1.30331
-0.000319067
0.181288
0.883698
0.00109268
0.101784
0.638204
1.5818
0.99278
1.30739
0.557693
1.11661
0.905002
0.91224
1.43396
1.02829
0.0259716
1.56451
1.56483
9.83483e-06
0.670894
0.68591
0.96058
1.41088
0.755011
0.900795
1.05443
1.12018
1.70649
0.754563
1.16747
0.449213
0.697684
1.68038
0.219008
1.53067
0.196282
0.362401
-0.000246662
0.678874
0.229906
1.41735
0.58861
0.330753
0.215951
0.152706
1.1639
0.820637
-0.000319326
0.626161
-6.53054e-06
-0.0327361
0.657051
0.00288883
0.857933
1.26066
0.242717
7.49326e-08
1.39804
1.07677
1.59996
1.23363
0.360924
1.05398
0.654406
1.5262
1.15126
1.42114
0.144703
0.890785
0.975758
1.52547
0.958526
1.78813
0.00608196
-0.0590099
0.558749
1.50823
6.70164e-06
0.907181
0.871931
0.847233
1.71012
0.672829
1.37237
1.14514
1.5194
1.20783
1.46501
1.412
1.6657
1.64501
1.25162
1.0895
0.648199
1.43563
1.00713
0.157845
1.47904
0.736814
0.97302
3.5523e-05
1.04914
0.00412634
1.39877
0.881624
0.882039
0.487327
0.975926
0.736411
1.80375
1.88962
0.933356
2.60813
0.00082791
-0.000133966
1.3654
0.835666
0.233278
0.388408
0.987474
0.00150152
2.67734
0.512779
0.00163328
-2.72543e-08
1.09964
0.938014
1.08527
0.470705
1.40109
0.904047
0.942007
1.14631
0.94275
8.4261e-09
1.41294
1.4034
0.738831
0.782741
0.967931
0.13465
1.17794
0.12544
6.10261e-10
1.1407
0.966877
-6.86269e-07
1.44668e-06
1.72971
1.09241
1.20921
0.210655
1.4813
0.918167
0.00145367
0.779139
0.246393
8.72216e-07
0.000650398
1.37263
0.521367
0.291422
0.979189
1.20306
0.932554
1.7464
-3.15371e-07
1.69549e-06
-0.00218377
0.847724
1.01032
0.781705
0.0582947
1.03389
0.0036559
0.0652104
0.742505
0.14521
-0.0506532
0.781696
0.0427599
0.751947
1.58077
0.187466
0.646636
1.14871
-0.000410439
1.22828
1.55895
1.16248
0.186629
0.20119
1.11227
-0.00308525
1.67465
1.54371
0.383383
1.68892
0.160769
1.55843
0.754489
0.782233
1.05561
1.30216
0.512806
0.919283
1.40134
-0.00251859
3.75781e-07
0.295818
-1.81706e-08
0.43627
-1.15592e-05
1.20545
0.615633
1.50749
0.0250962
1.09808
0.000416755
0.0353342
0.0225549
0.250005
0.148446
1.19155
0.909178
-0.000493317
2.03267
0.00209391
0.00869503
1.456
0.824408
0.00765187
1.43797
1.53375
0.938911
2.33763e-07
1.33695
1.54408
0.000774017
0.312895
0.810483
1.52683
1.46406
0.574388
0.445441
0.0510967
1.08263
0.660959
1.10249
1.56396
0.969985
1.56643
0.78635
1.20612
1.60527
0.378319
0.349881
0.356926
1.09803
0.00857128
1.47957
0.83431
1.25372
1.34064
0.640196
2.13304
0.87805
0.203203
1.01809
0.661006
-3.68077e-05
0.320747
1.53118
1.68975
1.81526
0.814544
0.276999
0.976691
0.284997
0.577975
0.0230302
0.865281
0.868823
0.030905
1.15629
1.6042
0.406816
1.59485
0.94636
0.977519
0.739982
0.472693
0.909587
1.72154
-1.43798e-06
0.96967
0.887762
0.000622902
0.00897922
0.0399985
-1.33796e-09
0.0619453
0.205713
-0.0581807
1.0669
5.94232e-08
0.00124243
0.963244
-1.45528e-09
0.300826
0.181587
1.34011
0.000461662
0.374676
1.47934
0.0250479
0.877204
1.70042
0.678573
0.00126562
0.106074
0.944978
0.00493298
0.395375
2.50836e-05
0.000181574
4.32566e-08
1.77594
0.857086
1.82359
0.244855
0.977773
0.538185
4.79169e-06
1.53233
1.52808
0.916866
1.5006
8.40483e-07
0.0410115
-1.13717e-07
-1.40098e-08
0.000893222
0.00199623
1.19966
1.70457
-4.89497e-06
1.0288
-0.000122371
0.901166
1.19616
0.696298
0.518641
-8.14996e-06
0.362379
0.711643
0.519214
0.907505
0.503438
-0.076611
1.51189
0.412511
0.28236
1.02068
1.57205
0.785691
1.93354
0.366014
3.28666
0.186512
0.0573626
0.000633986
1.52314
1.5604
0.256292
1.09225
0.00411272
1.16276
0.772309
1.17223e-06
0.0276307
-1.53267e-07
1.22167
1.12997
0.554558
0.176258
0.693052
2.97973e-06
0.000220069
-1.92046e-08
2.05622
0.504287
1.65643
0.00485965
0.278535
1.12424
1.64143
1.07323
0.0526759
1.05325
0.1313
1.66458
0.92193
0.606597
1.01258
1.61762
1.5724e-06
1.47643
2.98426
0.979855
1.54121
-0.000171007
0.986565
1.53286
0.900918