/*--------------------------------*- C++ -*----------------------------------*\
| =========                 |                                                 |
| \\      /  F ield         | OpenFOAM: The Open Source CFD Toolbox           |
|  \\    /   O peration     | Version:  4.1                                   |
|   \\  /    A nd           | Web:      www.OpenFOAM.org                      |
|    \\/     M anipulation  |                                                 |
\*---------------------------------------------------------------------------*/
FoamFile
{
    version     2.0;
    format      ascii;
    class       volScalarField;
    location    "1";
    object      T;
}
// * * * * * * * * * * * * * * * * * * * * * * * * * * * * * * * * * * * * * //

dimensions      [0 0 0 1 0 0 0];

internalField   nonuniform List<scalar> 
26625
(
-8.45234e-29
-5.44598e-18
0.613777
2.16186e-15
1.06876e-32
-2.45449e-28
2.81137e-14
2.30981e-27
8.28569e-16
1.54721e-11
-6.93259e-38
-1.0216e-10
2.31858e-29
8.45742e-21
0.0198547
-2.24553e-29
1.41841e-22
3.76521e-06
0.462411
-1.05267e-10
3.12489e-26
3.43479e-26
-6.29696e-40
5.09799e-22
-6.77265e-28
3.03996e-08
3.38199e-13
1.29187e-23
-1.29825e-29
6.36869e-18
0.173669
1.98632e-06
-1.0488e-05
1.03129
1.67649e-34
9.83298e-36
5.0258e-21
0.000182268
1.3139e-17
9.68968e-24
3.73464e-24
1.48186e-06
2.32647e-21
1.99777e-17
-1.17938e-27
2.92583e-15
9.86792e-23
0.0158083
1.27724e-24
2.71413e-39
9.06377e-14
0.513733
-1.90839e-11
7.95153e-27
0.411026
1.03957e-17
2.22312e-14
1.25447e-13
2.8759e-25
1.51352
2.22879e-45
-7.89572e-31
-9.50077e-27
1.4746e-18
3.02584e-07
6.21743e-45
2.01997e-13
0.000740292
-2.48301e-13
-6.52566e-17
1.35067
-5.76069e-34
-6.10805e-16
3.92426e-30
7.38777e-40
5.84328e-18
-1.31408e-37
1.20689e-42
8.83832e-06
6.88403e-06
0.936948
2.20846e-21
3.16072e-15
5.39578e-12
1.45566e-18
1.56775e-06
6.31128e-37
-1.18736e-42
4.93135e-25
1.67177e-11
0.00110979
0.114913
1.46212e-15
4.9367e-18
3.94571e-10
-4.63179e-10
-0.00216484
0.0400812
8.35378e-18
-8.58638e-06
-0.00254447
1.30152e-07
0.00437003
1.54845e-05
-3.34947e-29
0.0257867
9.87426e-44
0.0901692
1.92567e-05
-8.56746e-29
1.52661e-14
3.70028e-22
7.05598e-15
1.42438
7.41358e-08
1.30913
1.13493e-38
9.05804e-40
1.8872e-24
1.25576
0.00259555
0.000217576
1.88184e-34
2.53559e-26
1.22266e-26
1.95449e-05
-2.78501e-06
-5.51914e-45
2.6799e-13
7.19093e-08
0.0544678
8.45268e-13
1.03376e-18
4.87591e-30
5.44021e-28
2.4143e-17
1.75743e-19
-1.90764e-43
1.1788e-13
-4.12812e-24
5.88165e-07
4.686e-12
1.11499e-22
3.82967e-15
1.32931
3.20415e-14
-2.59395e-06
0.000271932
2.29247e-23
1.46663e-42
1.12611e-15
-1.81357e-06
-4.10351e-07
1.02021e-16
7.43378e-45
9.9316e-14
-1.79171e-05
1.56429e-10
-2.42216e-05
6.33715e-05
4.18718e-23
0.114742
-6.90223e-08
8.78252e-06
-1.82283e-39
-5.85511e-30
0.00274669
-0.000519768
-1.89076e-20
-4.8772e-37
3.66105e-11
-3.37936e-38
4.04248e-16
1.40682e-16
-7.56e-45
2.64253e-11
7.77172e-05
3.42472e-16
4.28451e-05
3.72339e-41
6.53923e-21
-2.00639e-21
1.43416e-40
2.54253e-14
1.31932e-15
0.000125255
5.18017e-16
3.08154e-06
0.00598124
8.20254e-06
-4.29035e-12
9.4287e-11
1.75844e-14
7.40537e-07
1.03402e-15
-6.47635e-30
2.10601e-10
-2.20487e-27
2.88436e-06
3.97555e-38
1.05547e-25
0.000331035
2.71112e-37
1.21432e-21
2.04987e-37
-2.66714e-11
1.54199e-09
1.36213
1.58002e-25
5.6944e-11
1.84928e-37
-1.14978e-06
-9.44808e-32
0.0172361
-3.28839e-30
-1.31323e-08
-9.38383e-15
1.7422e-24
3.38433e-22
0.0345507
1.30635
9.51241e-37
-4.43713e-39
4.62607e-21
-3.25281e-23
4.57542e-05
4.69226e-33
1.77789e-06
1.76169e-22
-2.52595e-14
0.029264
5.74128e-23
0.149116
2.21869e-18
6.64848e-38
1.11394e-23
2.20667e-15
8.9119e-21
-4.66144e-40
0.266544
2.87775e-15
3.29099e-14
3.14004e-12
3.33757e-40
0.923697
1.76224e-18
1.28807e-26
3.50538e-36
-1.54614e-39
1.56439e-15
0.288813
2.20143e-24
1.60898e-16
-1.26741e-08
-9.40949e-26
2.67211e-21
3.90545e-44
-5.51333e-23
1.69117e-15
0.59146
-2.41236e-29
6.06338e-05
1.15055e-14
1.34134e-17
1.38649
3.02683e-12
2.56557e-35
6.16503e-33
4.86017e-20
5.06716e-12
5.38118e-21
9.34326e-05
0.303393
3.863e-23
-0.175798
-1.92385e-47
-5.27363e-12
9.02701e-16
7.23065e-16
4.29724e-20
3.67913e-27
1.21174e-38
1.07488e-14
1.18554e-07
2.66256e-13
-5.16638e-38
1.33101e-12
-7.44737e-31
5.68617e-06
1.36048e-23
3.29573e-44
5.19517e-23
3.68794e-05
1.01519e-17
6.88309e-16
2.91301e-43
-5.36452e-44
1.41761e-08
-6.8834e-35
0.102365
2.28596e-07
-6.39186e-24
0.92145
-8.97507e-32
3.15703e-14
-2.92127e-45
-6.55221e-35
9.33171e-30
-6.1848e-38
1.74857e-26
-2.07308e-21
2.0195e-46
8.41013e-43
1.50924e-14
9.12691e-16
-7.13316e-14
-1.59539e-14
5.17594e-20
7.5138e-12
6.27156e-16
3.41764e-45
1.01285e-19
1.39891e-22
7.87377e-25
1.15166e-42
-2.37067e-15
-2.84033e-10
0.000176865
4.54245e-17
2.6822e-21
-2.79113e-13
2.21228e-29
-0.000381366
0.206374
1.0698e-14
2.24073e-24
2.25361e-13
1.13103e-23
-1.3477e-45
-0.00164833
0.00166365
0.00368032
6.34684e-06
1.80568e-21
9.87476e-11
3.74903e-14
2.89168e-10
1.65571e-17
2.56627e-26
-7.27811e-20
0.477239
6.28393e-22
1.21089e-22
0.374808
-4.07398e-18
5.17186e-14
2.18129e-17
3.02523e-05
0.0601729
0.000770581
2.09773e-07
-1.2646e-36
1.38538e-14
4.03579e-23
0.000108191
5.27408e-16
1.26366e-18
1.20971e-06
-0.00297258
2.7004e-19
0.00113126
0.153629
-2.13279e-14
1.34936e-40
-1.07082e-28
1.10491e-06
-8.34262e-16
7.38208e-40
4.35939e-42
3.27916e-12
-4.07131e-06
1.53489e-09
5.3099e-14
4.79878e-11
7.87361e-14
-5.98948e-07
0.000315245
2.44456e-19
5.41231e-24
1.02178e-22
5.42784e-44
-3.32345e-26
2.45164e-21
7.0848e-14
2.99305e-20
1.98912e-11
2.2958e-12
9.40018e-22
-3.74756e-07
4.88291e-15
1.79694e-12
0.000650237
1.86039e-13
1.86748e-36
-4.5355e-29
3.08538e-21
3.74272e-05
-2.46896e-24
-3.65107e-19
8.64033e-06
2.4936e-14
9.11788e-08
-4.0707e-31
-1.75108e-35
4.7013e-20
5.39253e-15
-3.2784e-05
5.91689e-14
1.79391e-12
4.22294e-33
2.83163e-39
7.07058e-32
2.62412e-05
1.7317e-05
4.15318e-19
2.73775e-28
0.0542423
1.90213e-15
-7.57825e-41
-3.54676e-13
5.5462e-11
5.54087e-15
5.75181e-20
9.95384e-38
1.55843e-12
9.42331e-13
3.61781e-39
2.15134e-20
2.07077e-27
1.89358e-12
9.85353e-14
2.39149e-38
1.60816e-15
1.49482e-11
5.70177e-14
7.3063e-27
-2.68777e-47
3.4808e-13
9.03464e-25
9.24309e-14
-7.61961e-13
0.00112276
-1.22136e-36
8.03955e-07
5.07663e-25
7.78922e-24
8.62252e-19
1.08395e-41
-7.5329e-29
0.17618
3.35451e-16
0.0156716
2.17165e-30
5.10506e-15
-2.23297e-18
4.56041e-10
4.52591e-46
9.09598e-12
1.81944e-17
9.34472e-43
6.53339e-36
1.90424e-09
2.10559e-21
1.2881e-16
-7.63121e-18
-4.27758e-33
8.57443e-07
2.84924e-12
-2.08604e-09
-8.64691e-39
4.69639e-08
4.97181e-33
0.0188451
-3.03224e-38
1.80155e-25
5.78223e-25
3.71417e-18
1.26672e-12
3.18459e-16
-1.84651e-29
9.86596e-12
-6.4273e-08
-1.31125e-29
3.53388e-13
3.12458e-37
0.00439146
3.14425e-08
4.01122e-10
1.38765e-16
-2.73705e-29
0.495372
0.0120458
7.95509e-06
1.21618e-16
1.18697e-06
1.43707e-39
4.1863e-17
-0.0108318
1.29909e-13
2.12388e-24
5.40979e-19
0.000147579
6.18539e-08
2.35433e-05
-1.1612e-29
-5.45125e-37
-4.48234e-16
1.98412e-27
1.25162e-28
2.43392e-07
9.98895e-07
1.68593e-06
-3.1665e-44
-1.06172e-18
5.83075e-18
8.51324e-39
2.63159e-07
1.87593e-16
-7.43222e-15
8.54361e-27
-3.19758e-27
1.52145
6.56805e-12
4.99778e-18
1.61673e-08
-1.21381e-07
3.14348e-11
3.54845e-14
1.16879e-14
-4.02023e-30
9.34315e-20
1.0938e-06
-3.42648e-36
1.5265
8.31119e-18
5.69051e-17
3.6627e-26
4.50297e-21
-2.17598e-25
-9.05535e-31
5.14578e-07
5.7271e-28
2.58074e-06
2.86929e-20
-3.37398e-16
-3.72091e-16
3.36009e-07
1.05511e-13
1.21491e-11
-0.000325098
2.93328e-22
3.83795e-24
0.00893305
1.10129
2.01856e-19
0.00109677
1.36196e-41
3.90072e-14
1.74795e-06
4.08335e-38
-8.18387e-28
6.98551e-30
8.25826e-12
8.78281e-18
2.58205e-08
1.25393
2.84833e-42
0.00476756
2.30969e-33
5.55031e-24
-6.9401e-35
0.192588
-4.82217e-24
1.79242e-14
3.68308e-18
-1.71299e-23
-1.00931e-08
1.16302e-24
5.39972e-10
1.11108e-23
3.33358e-19
3.53815e-11
9.42757e-24
-8.32931e-39
1.78313e-27
0.00143967
0.00956744
1.79581e-10
1.91239e-11
1.45675e-23
-2.9502e-34
5.14004e-14
0.0909182
5.11374e-17
1.24078e-36
1.15872e-14
0.0080029
3.19611e-21
1.56037e-06
-2.6091e-20
-0.00963357
7.6473e-05
-4.42638e-27
2.48759e-05
4.95682e-14
4.64726e-07
4.58283e-15
0.0116783
-2.18248e-27
-0.00923704
8.49109e-16
-7.49351e-34
4.92779e-18
3.02789e-12
-3.80733e-08
0.610485
3.16974e-27
1.87822
-1.56958e-09
-1.11475e-13
-2.92707e-36
6.39416e-18
6.28222e-15
8.6301e-25
6.41316e-24
-2.8942e-35
1.92155e-21
-1.13064e-07
2.15978e-16
2.31509e-15
-2.11779e-38
-2.33612e-30
-0.000416706
3.91918e-25
3.89433e-13
1.14425e-11
1.1107e-23
2.67705e-18
1.43372e-30
-6.37954e-37
4.99501e-06
3.29729e-28
9.10066e-34
6.66912e-05
0.000733658
3.59496e-14
4.22094e-24
3.40593e-18
4.37075e-05
1.12629e-09
-5.11318e-32
6.76684e-25
0.00103649
-2.31066e-30
-1.33157e-06
1.12529e-12
5.26995e-10
0.000946139
2.15842e-16
2.52442e-39
1.06824e-17
9.58361e-14
1.52941e-33
6.6814e-05
1.34889e-42
5.74152e-33
-2.20934e-08
7.08856e-05
3.51622e-22
1.03015e-31
1.45562e-12
5.27094e-29
7.79953e-14
-2.78233e-34
-2.86699e-21
-3.23568e-40
0.00893087
9.48413e-27
-3.44092e-11
2.99306e-16
-1.48064e-40
-1.13498e-43
2.77278e-29
4.50491e-21
4.83113e-35
-8.66374e-28
5.82488e-25
0.00218226
2.41388e-22
3.80499e-14
4.5602e-22
1.63162e-18
4.05532e-26
2.36452e-19
-1.00242e-44
5.02874e-16
7.72381e-32
5.73018e-14
6.96382e-11
3.92559e-05
1.01734e-41
0.454831
6.31359e-30
-8.30056e-43
-4.89864e-42
6.31745e-31
-1.46715e-46
0.00762599
0.000773128
8.49792e-20
7.59431e-23
1.24536e-08
-6.09901e-10
8.33854e-45
1.67734e-12
0.000100629
-2.91292e-37
4.17486e-12
4.83786e-27
3.79362e-17
6.24638e-24
1.96002e-26
-1.87077e-07
2.06396e-21
-2.52933e-36
1.11292
0.200966
0.160236
3.10044e-15
-3.49704e-39
5.6036e-20
2.52999e-19
0.325443
1.21422e-19
1.20618e-27
-7.65559e-44
7.83059e-05
1.35646e-17
1.16211e-16
-0.000141704
2.60337e-19
-0.00240177
0.331761
-2.99543e-34
1.44602e-22
7.94856e-14
2.06796e-23
-3.09183e-18
1.70372e-15
1.56106e-10
-9.1386e-34
1.0443e-25
1.01962e-15
1.34348e-16
-9.36801e-24
1.19228e-12
-1.01594e-39
-1.87086e-35
1.6444e-07
-1.77562e-35
-3.52801e-29
-1.50946e-28
7.05774e-14
9.56191e-15
1.1504e-40
1.41405
1.91649e-27
4.07953e-14
-1.06615e-28
0.00271343
0.331066
1.54266e-27
-0.000108386
1.2204e-17
-4.24608e-10
2.17111e-27
4.51598e-24
9.00422e-24
-1.36701e-30
2.77881e-17
3.19806e-08
9.48537e-20
1.92479e-16
6.24389e-14
1.18801
0.000913142
6.01622e-13
0.00413401
6.55379e-23
2.03447e-18
6.20758e-17
1.20066e-17
1.34023
-7.37318e-15
2.23715e-05
1.58849e-05
4.15273e-15
3.9198e-17
-4.45594e-42
4.0151e-20
2.13456e-36
1.61016e-32
4.75232e-07
2.3327e-13
-2.51049e-34
3.86085e-24
2.29633e-35
4.01056e-15
3.07662e-14
2.39183e-09
1.4592e-20
-2.60351e-45
-9.87084e-36
0.00340477
1.66988e-20
-1.37001e-37
0.000744172
-1.89516e-07
-2.52973e-27
1.01276e-14
-5.9211e-13
-5.26358e-25
1.29625e-05
1.11824
2.50617e-06
-2.30456e-36
1.35769e-24
4.93025e-14
0.234041
5.72293e-32
3.11374e-23
-8.87266e-35
-6.08383e-09
1.01326e-24
8.64529e-10
-3.5952e-31
2.09707e-32
0.00319132
-2.50336e-09
6.36055e-35
1.12279
1.12844e-12
2.73445e-13
-5.38746e-34
1.40986e-44
1.92038e-11
4.24447e-22
-1.2797e-23
-5.27012e-09
1.52958e-17
0.460116
-3.17761e-09
-6.8216e-35
1.47979e-23
4.43647e-27
3.63368e-22
1.75632e-12
1.31965e-14
-3.70283e-38
0.760954
-6.77474e-39
1.42823e-10
3.18927e-22
1.13034e-26
4.74367e-15
1.76323e-24
1.65942
1.04952e-46
0.266338
1.77095e-17
2.7494e-26
3.14665e-24
5.47004e-19
2.29524e-05
3.3129e-15
5.65671e-24
-8.72059e-08
5.02505e-18
-4.5815e-39
-1.29215e-20
-4.42963e-37
3.48677e-22
-1.7866e-38
3.61451e-19
-2.16362e-39
1.49203e-31
1.091e-14
1.25796e-14
1.6194e-12
6.42968e-25
6.19875e-18
-6.01794e-37
2.5072e-33
0.031826
1.86873e-16
6.60083e-27
1.59333e-27
-4.91207e-14
-6.40512e-38
1.02947e-18
2.0837e-22
-5.4159e-11
5.07518e-35
1.18463e-44
4.77388e-18
1.07827e-07
2.49326e-39
-3.3054e-25
9.26749e-29
0.00026906
2.75656e-05
-4.7517e-16
-3.96553e-45
2.98703e-13
1.04402e-44
4.5658e-17
-0.00366996
5.68255e-20
7.87046e-14
4.77861e-21
3.22967e-26
6.88619e-39
2.68661e-24
0.00641204
1.5198e-11
-2.6239e-20
8.46336e-39
1.12335e-11
-1.95132e-43
9.73429e-13
2.30579e-07
-8.80365e-14
-7.65996e-18
3.01108e-17
-5.89612e-39
1.30852e-26
0.00033619
-3.89408e-09
-2.5425e-12
2.08702e-43
0.159608
4.2893e-41
-7.02307e-14
1.40573e-09
1.0608e-17
-7.5495e-33
-1.22863e-30
-1.29102e-35
0.058088
-0.000739903
0.749812
1.15118e-23
2.26622e-33
2.64632e-05
0.610121
0.315469
3.15898e-20
3.37124e-35
-2.2488e-41
1.58613e-07
1.76163e-24
0.00390507
4.23069e-15
-2.22923e-20
1.27184e-14
1.0939e-28
-4.33206e-24
-0.00012367
-1.34316e-39
1.85761e-23
-4.02246e-14
0.630243
-0.00228649
2.51502e-29
3.23309e-31
0.00159557
1.2077e-40
-1.76577e-34
2.01763e-20
1.11193e-44
0.000273611
4.64094e-09
-2.13457e-29
1.68718e-24
-2.48588e-30
7.26092e-26
3.43045e-14
-1.5214e-05
1.53182e-23
1.18781e-37
2.41175e-23
2.56641e-10
6.73845e-32
1.32662e-19
-1.38366e-17
4.37363e-16
1.13697e-05
7.87661e-16
2.1662e-06
3.29694e-28
3.16285e-34
2.75598e-23
1.53042e-13
0.186678
6.26752e-39
3.4806e-17
-2.91493e-05
5.23628e-40
0.0839504
-5.84635e-31
-4.17663e-30
2.50151e-20
4.64564e-14
0.137065
-0.00057418
1.73808e-28
2.57649e-23
9.04626e-05
1.48103
1.87756e-19
4.0172e-13
-0.000750165
0.000302689
0.193202
9.83561e-38
-1.71742e-14
8.20888e-22
-4.81649e-30
-3.39338e-16
6.49339e-24
-1.23548e-27
0.27667
1.85348e-05
-1.59841e-13
6.82809e-41
5.8605e-12
1.16498e-21
4.18734e-23
1.2528e-25
8.18853e-13
2.39583e-24
8.01583e-19
4.02949e-30
6.9129e-05
1.10489e-42
-6.01823e-08
-3.91139e-36
1.40903
1.45976
0.00257017
0.770473
5.40441e-32
7.14353e-18
-1.90501e-39
8.79892e-38
4.43185e-07
2.21129e-14
4.24078e-26
5.40162e-19
9.6434e-14
2.95344e-12
-5.3539e-15
5.13733e-16
7.07001e-09
2.42853e-25
1.41364e-06
3.77804e-32
-6.67579e-12
0.00420722
0.00413744
6.74234e-22
1.11176e-42
1.09555e-20
-6.14716e-35
6.17178e-06
-2.64417e-47
0.131303
1.11326e-12
4.43908e-20
1.28732e-36
2.22002e-22
2.94698e-16
-6.46469e-20
8.79423e-24
-3.72447e-05
4.38576e-36
-9.22051e-09
5.90503e-08
1.5062e-12
0.000132238
0.000927438
6.35035e-13
1.73585e-35
9.13193e-22
1.36365e-06
-1.27852e-42
1.52137
3.37535e-13
2.15468e-26
-4.34604e-39
1.14724e-15
1.4147
2.93719e-17
0.629126
1.24128e-13
8.07017e-15
5.08125e-12
-5.73395e-36
4.27094e-36
1.9378e-11
-3.71876e-08
1.88739e-25
7.878e-06
6.96049e-26
-5.75706e-38
2.02025e-42
6.64191e-31
2.89641e-11
1.56041e-07
-4.06567e-24
6.23908e-20
3.25741e-37
1.13762e-23
1.00507e-19
-3.48378e-37
3.54755e-15
2.54369e-24
1.5174e-11
-3.71219e-09
-2.12001e-08
0.0045455
2.96389e-06
2.72503e-05
0.681523
2.91886e-21
6.2544e-32
1.29896
1.1196
1.53256e-41
3.54321e-18
-2.21798e-17
1.41705
7.9466e-11
1.08549e-23
-5.15077e-41
2.62882e-19
3.6932e-07
-3.53863e-07
-0.00683455
2.92147e-10
0.00370346
1.88935e-16
2.74114e-12
5.64234e-10
3.00602e-22
-4.244e-40
5.50714e-12
0.0117676
2.31565e-19
1.54574e-05
1.20068e-14
2.39624e-29
1.08306e-11
3.06818e-21
-2.44529e-24
2.78463e-24
0.0389484
6.85487e-22
0.00243578
2.08738e-31
3.87484e-16
-1.14074e-21
-1.43151e-31
4.16144e-13
4.16852e-16
9.24353e-15
0.0797291
1.1836e-14
0.57818
1.3231e-22
1.06133e-41
1.66312e-25
1.50176
3.01885e-11
-5.2773e-06
9.84436e-15
-8.98653e-35
6.30061e-44
-3.32164e-25
2.92956e-24
1.02111e-16
-8.33805e-21
-2.17786e-35
1.35875e-11
1.23254e-20
1.35273e-12
1.54374e-24
2.94484e-17
5.83267e-11
1.3329e-20
3.08262e-14
0.242484
1.01553e-36
-5.20919e-45
4.96911e-25
3.96983e-18
1.74363e-13
6.87793e-26
1.25658e-14
0.601116
2.00727e-14
3.3517e-16
0.000692439
0.00273304
0.0324928
1.13392e-29
2.39254e-15
9.25493e-16
-4.63953e-20
-6.21359e-34
8.93408e-20
1.26162e-14
5.6447e-20
1.27426e-09
9.42481e-22
0.165353
-2.00587e-27
0.0544256
1.58794e-05
4.10352e-12
0.0017389
1.07773e-43
-1.6403e-06
2.14464e-14
-8.66957e-48
5.44285e-21
4.47339e-26
1.44341e-18
1.34534e-24
-2.39154e-27
3.25142e-16
-6.94869e-06
9.9028e-18
-3.17057e-45
0.504779
8.43164e-17
3.80486e-07
0.00956243
0.0208276
1.4389e-15
9.92679e-06
9.63424e-24
1.55832e-28
-9.2562e-33
-6.01754e-46
9.33328e-25
6.88101e-24
3.73204e-19
1.06965e-16
-7.11546e-46
0.0108001
1.61699e-45
-1.09373e-11
-8.1213e-42
-0.0223447
-2.97287e-05
2.20168e-14
-1.66316e-34
-2.13675e-38
6.42693e-25
0.000153747
-0.0138133
7.46842e-14
2.09198e-20
6.72757e-15
-2.13361e-38
-2.25184e-17
4.01386e-17
1.91993e-11
0.00344203
-4.9818e-30
8.47812e-05
-3.10815e-23
4.48826e-25
8.36477e-17
7.55973e-39
-0.00138758
2.66188e-06
3.33382e-06
4.29056e-11
1.35212e-05
5.25893e-12
-6.57148e-29
-6.46038e-07
-0.000176459
1.88802e-07
-9.11815e-36
4.9852e-15
7.71062e-34
1.15823e-14
5.9212e-17
1.12424e-30
0.000212744
6.7662e-21
-2.7234e-16
1.39398e-19
-0.0038566
-3.04995e-19
4.87207e-27
2.83344e-16
0.113901
-6.77772e-41
-0.00174221
-3.23013e-16
1.5179e-30
1.00653e-40
3.64302e-39
3.88594e-07
0.113185
8.02021e-22
5.04348e-14
7.59087e-17
1.11164e-18
5.69631e-30
7.11332e-44
0.262767
5.83737e-07
3.17641e-07
1.8996e-14
1.71341e-14
1.12934
3.76712e-23
1.60438e-11
1.68134e-23
-5.35734e-30
4.3013e-18
1.07042
1.04687e-14
4.10103e-22
3.46331e-05
1.29837e-13
-2.86976e-16
2.53531e-41
6.89021e-12
1.24351e-16
4.30486e-24
3.67366e-29
1.80401e-11
4.45341e-13
3.84281e-14
1.39367e-27
-1.01385e-37
1.5228e-09
1.53169
8.52432e-37
-2.39013e-16
-2.652e-42
-4.14548e-32
-2.78181e-23
1.22287
6.00901e-22
0.00171825
1.33624
9.49453e-42
-6.21168e-18
-4.91258e-07
-5.11843e-37
0.00553765
2.46069e-25
-4.64719e-09
0.0212855
4.32509e-14
2.00727e-08
-7.19693e-10
3.73743e-05
1.45516
9.59296e-32
3.18828e-19
3.31453e-37
1.16466e-19
-1.65272e-06
-1.1349e-11
1.37467e-20
5.32934e-28
0.000465769
0.116226
1.83329e-07
1.33988e-10
0.28204
0.0047591
3.84626e-06
7.92169e-16
-5.53437e-31
2.13775e-13
2.00513e-25
-1.25709e-32
-3.9544e-09
7.0284e-22
2.18594e-16
1.90415e-15
0.00059315
5.45544e-12
1.76977e-08
4.65173e-22
-5.19319e-32
7.95736e-08
0.0321039
3.27535e-32
4.6853e-43
1.59386e-23
2.99005e-13
3.06184e-20
-1.1338e-24
1.54792e-12
6.75996e-15
1.38516e-18
5.61535e-21
1.9077e-06
4.01142e-22
1.14196e-17
0.745803
2.93125e-22
0.593255
6.94036e-18
1.56002e-06
4.31732e-21
7.74327e-24
-1.12494e-18
-5.97559e-19
-1.78332e-42
1.30124
1.49873e-21
-5.51739e-35
2.44746e-23
1.78588e-18
1.14507e-05
-8.71372e-35
0.686686
0.00922768
1.74254e-15
5.25347e-27
2.17022e-37
1.18906e-24
1.54292e-42
4.96404e-16
-1.40575e-20
1.42328e-12
2.16973e-11
4.21316e-25
4.20444e-24
1.27517e-25
0.0847268
-3.93261e-36
3.25443e-26
-3.27826e-16
8.23974e-27
4.28708e-28
0.0308279
-1.94871e-39
2.38677e-09
2.39398e-20
2.96161e-45
-6.74387e-11
1.43695e-18
2.03095e-09
4.00395e-21
4.76616e-31
4.20231e-13
1.26687e-18
2.14957e-40
-2.05689e-07
9.7109e-35
-1.34819e-23
3.4934e-41
0.000701333
-7.68492e-26
3.40739e-11
8.35521e-21
1.40179
2.53073e-13
4.40961e-06
2.68891e-13
-4.98254e-35
9.97712e-21
1.28419e-21
-1.34962e-18
3.75309e-17
0.923031
2.45321e-27
1.52199e-37
1.35735e-25
1.17621
2.30447e-08
-1.81031e-35
2.23503e-24
0.0115671
5.70679e-17
-4.03524e-19
9.16101e-18
-1.27739e-10
1.74753e-13
-1.42421e-29
0.00299634
-4.50646e-46
3.57397e-24
3.86729e-14
4.97078e-05
1.48717
0.629829
-1.25038e-43
0.145025
1.38543e-33
-1.39105e-26
7.45846e-07
3.15319e-16
-1.53756e-35
3.12578e-26
4.46099e-11
3.79869e-15
1.91638e-20
0.00493427
1.71845e-27
-5.4877e-09
7.84101e-18
-6.62093e-19
1.01256e-32
-9.68385e-41
2.05758e-34
5.84234e-10
4.37784e-08
0.0805838
2.15816e-14
4.2161e-12
-3.82683e-31
-1.16364e-37
5.88313e-10
2.06563e-22
0.00124718
1.32132e-38
2.41748e-25
9.20157e-14
1.22598
6.26392e-09
-3.36249e-32
-6.89354e-09
1.72593e-06
4.99921e-17
-1.85346e-34
1.45718e-23
1.73235e-22
0.0371156
-1.02593e-40
0.979895
1.52822e-18
5.86493e-43
-1.97981e-28
-3.70261e-33
1.47714e-06
2.23968e-27
5.33008e-25
1.52585e-20
1.84979e-12
9.25517e-12
-3.23237e-20
-2.06959e-08
1.16266e-18
3.35927e-13
-2.68768e-06
4.87775e-29
0.547048
0.0322997
5.1778e-15
0.000181402
0.0318429
5.03124e-10
4.1119e-07
-1.7014e-23
2.00774e-20
3.5819e-14
-2.32223e-29
2.81248e-25
1.96227e-19
1.1291e-13
-5.87775e-32
7.49491e-20
1.08556e-18
5.32014e-21
-1.84288e-05
-5.61283e-07
-8.17491e-41
7.95427e-10
2.42048e-14
5.84057e-36
0.437236
-8.15402e-42
1.83732e-07
1.77615e-27
0.00793714
-1.79319e-41
-5.03436e-10
1.98777e-16
3.8528e-25
6.0511e-23
8.04487e-37
-8.54341e-09
6.84521e-08
5.62814e-19
0.38148
2.36648e-38
1.36303e-29
0.00117163
5.28627e-38
0.18834
1.11543e-08
1.10677e-33
-2.43902e-46
1.82747
0.00108084
-1.05005e-10
-6.34185e-17
2.76615e-34
1.53277e-40
5.83543e-31
-4.67617e-44
3.39329e-20
2.20805e-08
-1.02981e-08
2.99072e-24
3.80456e-28
3.47233e-11
1.15074e-33
1.17228e-15
-1.71376e-40
1.35181e-26
8.51212e-16
-9.90399e-39
6.96335e-08
-7.83668e-13
0.426282
6.26378e-25
-3.44039e-30
-9.53931e-32
7.49428e-26
-8.33534e-36
4.45129e-26
3.8323e-07
-1.41925e-18
1.6298e-17
3.09581e-23
2.40697e-12
8.0493e-27
-4.45455e-20
3.10962e-20
-2.70123e-18
-2.21288e-19
0.85421
-1.5818e-45
3.3663e-17
1.03036e-06
1.51515e-09
8.45746e-10
-2.8706e-34
0.0722642
1.6776e-13
1.0429e-33
1.27814e-07
2.51145e-39
4.54319e-12
0.376716
6.84363e-38
1.35167e-42
1.37224
-5.36929e-12
4.03324e-22
1.64253e-39
-2.33166e-12
0.00828147
1.10516e-23
3.16684e-24
-4.93768e-28
1.71523e-25
4.05639e-15
2.29419e-15
-6.12317e-46
3.93553e-22
6.70611e-24
0.00054333
0.0668042
-2.51371e-43
-1.50343e-18
4.41587e-20
1.7467e-34
5.65553e-24
-5.23825e-40
0.162965
-7.31132e-45
8.52455e-43
-1.47587e-43
6.14972e-22
1.44723e-11
6.79312e-05
-2.96735e-19
3.64079e-44
-6.0102e-40
-1.18026e-45
2.05884e-17
-4.66116e-34
3.85659e-08
1.27036e-13
0.750398
3.64182e-30
-5.00216e-31
1.53317e-28
1.50618e-15
1.90258e-05
5.62276e-09
4.11819e-13
0.0605037
-1.77884e-36
-0.00379692
-9.61208e-18
-1.84846e-36
5.62616e-31
1.48979e-18
0.0253255
2.19758e-16
6.85624e-30
-5.01196e-10
9.85218e-16
3.33019e-17
2.46849e-12
1.45841e-21
2.74788e-34
3.49989e-11
-9.23073e-34
0.0266483
2.66743e-35
2.91674e-44
-1.04252e-31
7.20756e-19
0.601718
1.11282e-37
0.00418273
-3.267e-40
2.28878e-17
-1.4217e-15
1.56349e-15
9.27467e-24
2.01469e-09
0.474704
-8.58596e-30
7.42462e-19
3.82475e-10
1.26479e-27
1.85529e-18
-2.66632e-31
0.0141584
4.9699e-10
7.54056e-23
4.84913e-07
1.80311e-15
1.03291e-12
7.14174e-32
7.64714e-13
5.30936e-43
-5.15143e-45
0.0101391
5.36616e-12
1.70743e-06
1.19273e-13
0.000106198
3.76812e-27
1.59529e-12
5.64404e-08
-2.1597e-36
4.13681e-28
2.90838e-07
-8.40202e-32
-8.11806e-34
1.2517e-05
-0.00341962
0.0516603
2.47388e-15
1.10716
2.54833e-09
6.87236e-23
1.35434e-11
5.55614e-10
1.02335e-15
2.2355e-13
1.24945e-15
-3.74128e-19
4.93333e-25
-4.26418e-17
8.86747e-12
-9.43338e-07
3.82231e-07
-1.86798e-34
-2.67071e-32
1.01709e-24
-8.89414e-07
-0.00130245
5.50232e-19
-0.000654144
-7.61366e-28
4.07498e-23
0.0601926
3.19693e-18
0.000176244
1.25044e-06
1.83545e-14
3.22231e-06
-8.52729e-36
-2.82383e-18
-1.31504e-29
0.321675
3.98955e-07
3.56362e-05
-7.4106e-41
0.929424
7.66244e-15
5.26098e-43
-1.15184e-42
7.25973e-27
1.15274e-28
1.51117e-28
3.54223e-17
-3.25331e-08
2.95633e-18
1.11879e-22
-6.89016e-34
1.53896e-14
-6.55694e-11
0.0235788
1.78018e-16
8.00596e-10
-3.06972e-43
2.71175e-34
-1.19641e-06
-8.16949e-11
7.83428e-08
4.36864e-16
1.19061e-09
-5.49594e-33
1.0367
6.09406e-25
1.00552e-24
2.23547e-09
-6.09917e-24
-6.37953e-05
1.15817e-06
5.81732e-31
3.01952e-32
0.000108232
-1.46983e-24
4.1667e-21
0.00233876
1.13743e-21
1.26418e-24
-8.58483e-07
2.25142e-15
1.78457e-10
7.45017e-15
-2.82903e-24
-7.57974e-38
-0.00110061
4.57073e-29
3.56074e-16
-7.80369e-05
4.86441e-24
2.16448e-21
0.00985602
-1.32261e-30
0.00235245
1.4039e-12
5.10454e-22
1.4913e-29
-2.49919e-23
1.47511e-26
2.45336e-08
1.75249e-34
0.066326
4.16973e-11
5.37294e-14
-2.64134e-42
-0.0083306
1.05918e-25
-3.25463e-14
1.2419e-14
0.166527
2.69901e-15
4.8741e-42
4.41008e-27
3.5785e-24
0.228875
-5.90605e-33
0.750593
3.91735e-21
1.41241e-38
5.02259e-16
-4.40296e-42
3.19664e-18
-4.92035e-08
2.5692e-05
6.57675e-10
0.990398
1.15922e-35
1.91684e-25
7.47317e-19
4.29626e-22
1.6322e-24
1.31619
1.24007e-07
0.00629229
4.81616e-39
0.0278896
2.53683e-07
-1.0533e-37
1.18437e-43
1.33148e-07
-1.21346e-16
2.47889e-45
-5.55798e-05
1.55713e-26
1.33197e-05
2.8608e-12
-2.04895e-38
-0.000214168
2.52239e-17
0.00270858
1.4861e-39
2.88525e-10
2.78594e-12
3.19015e-29
7.99213e-32
3.37919e-19
6.92805e-22
2.12775e-31
2.17538e-09
-5.88934e-35
0.000448289
-5.77562e-06
2.8546e-24
3.56256e-16
1.46442e-21
7.28957e-13
-4.06879e-10
-2.19572e-11
-4.97483e-16
5.4866e-11
9.65919e-07
1.67289e-25
-1.66807e-25
1.57965e-25
1.29852e-07
4.6133e-37
6.41904e-16
2.72866e-35
7.5398e-15
1.39666e-37
1.07007e-12
5.97832e-07
3.5198e-06
9.97925e-13
1.04366e-19
5.053e-09
0.0426869
-1.05661e-30
4.32714e-25
-1.01552e-16
3.87553e-24
-2.44748e-17
6.70236e-24
1.47976e-24
-1.9096e-41
-2.54472e-39
9.46974e-28
5.39413e-27
7.64879e-43
2.6375e-36
1.11971e-16
-6.40298e-25
2.27817e-19
3.65568e-40
4.06939e-07
1.43227e-07
3.45e-05
0.0340141
1.05989e-07
0.000498357
0.791452
3.14377e-41
-2.84913e-30
2.33289e-27
2.22775e-20
-8.18411e-05
8.57653e-15
1.46877e-33
2.5877e-06
-1.17342e-36
-4.6897e-31
-4.31325e-41
6.44114e-22
0.0624997
0.0864749
1.67681e-18
-2.75987e-07
-1.80357e-40
-3.58697e-20
0.000431532
2.40399e-06
6.26173e-24
3.23041e-17
0.162386
2.5325e-21
1.5039
1.464
9.02641e-11
3.05254e-14
-6.7366e-17
5.64613e-08
0.307215
0.06908
8.20505e-15
-1.12652e-12
1.01695e-24
-1.07284e-34
4.98243e-07
7.55487e-11
-8.76012e-32
0.934335
0.00642102
2.74701e-17
0.1921
2.65693e-32
-8.17946e-42
0.010436
7.12103e-13
-0.000267554
-2.18905e-13
1.15601e-12
0.666983
5.80402e-24
0.0161398
2.73102e-27
6.15524e-16
1.99355e-19
-1.12809e-41
1.35908
2.82043e-23
0.014702
9.19138e-11
4.51279e-08
1.13116e-23
-4.41622e-22
1.25638
8.90564e-21
3.01381e-16
5.84003e-17
-5.46401e-42
4.75456e-32
1.10133e-07
-8.12259e-29
-2.4809e-18
0.330155
9.63851e-08
-9.64992e-42
2.60836e-33
-4.34051e-16
-6.31007e-15
9.70668e-26
-5.21004e-18
1.34134
4.46224e-25
3.70274e-17
2.03526e-22
-1.72563e-18
7.32654e-14
-0.000447656
2.55325e-35
1.53777e-16
9.4696e-06
0.048969
3.40893e-29
-4.84299e-31
-7.90512e-06
-1.07966e-14
-3.59731e-23
-9.60051e-33
-7.79961e-39
1.58928e-25
-4.77874e-20
0.312402
-7.86074e-36
3.67279e-41
-7.37384e-30
-9.47429e-10
2.79689e-18
1.22423e-20
2.11637e-24
-8.22423e-39
3.34767e-31
3.53447e-20
2.53439e-26
0.128859
6.88761e-15
1.43767
4.31652e-25
3.45925e-18
-9.70808e-31
2.22828e-20
-1.74366e-36
-4.22301e-09
-1.14445e-30
1.23116e-08
2.97417e-14
1.87342e-10
-2.28436e-32
5.21061e-33
0.00398756
-8.98286e-30
1.57681e-17
9.26216e-07
4.94069e-34
3.79478e-15
-8.79663e-17
1.24169e-25
0.000412656
-9.53702e-19
3.84219e-27
-0.00184085
6.90123e-28
-1.40329e-28
4.01203e-21
-1.70075e-31
3.49006e-20
7.73439e-35
-1.46023e-14
1.28086e-30
1.14524
1.33765e-24
2.16103e-24
-1.09802e-35
1.76873e-07
1.36749e-33
-1.01621e-07
2.17193e-17
2.40652e-22
-3.07646e-31
-1.17924e-18
4.17927e-27
1.81985e-09
2.35114e-05
1.29223e-14
-0.00362365
-6.68211e-09
1.41237
-1.4097e-30
9.06053e-07
-1.63366e-19
0.279782
3.4039e-20
-4.62493e-33
1.39303e-32
7.89394e-12
5.01671e-42
3.99457e-39
7.93704e-12
1.14384e-28
2.72032e-14
3.5265e-12
1.44946
6.38327e-05
-2.63566e-37
-5.57706e-25
6.5014e-26
-0.00740975
6.27869e-36
2.36819e-33
1.35153e-14
1.57983e-11
8.55095e-21
8.19068e-19
0.00108445
-4.0721e-36
-9.73291e-39
-3.80563e-25
1.29613e-14
-3.08077e-38
-0.00780161
1.27064e-08
1.35142e-25
2.84998e-27
1.80096e-05
6.24114e-09
-7.53043e-16
4.93079e-25
-1.4572e-25
2.13335e-39
2.12342e-23
1.47326e-19
-8.079e-31
1.35878e-05
1.09256e-26
1.65238e-07
4.16262e-12
8.78964e-27
1.30519e-17
0.000315987
-4.92266e-42
8.12533e-25
8.15251e-08
5.57331e-29
0.00403353
3.23355e-14
-6.69515e-21
-3.60704e-26
5.82944e-19
-4.3377e-43
3.30581e-10
0.623192
-3.00247e-33
1.76352e-16
0.111408
0.27616
-0.000860831
0.00213854
-0.0141754
5.19833e-20
5.70813e-28
1.75333e-27
4.04884e-08
-9.1051e-41
1.73757e-21
4.01499e-15
8.38117e-22
1.46405e-23
2.29705e-08
0.00592455
2.99154e-23
-1.17635e-37
2.5227e-13
5.06235e-32
3.93265e-42
-2.99213e-34
2.0959e-25
1.70787e-28
3.37909e-43
1.71118e-43
2.16024e-28
2.65522e-26
-9.884e-29
2.85322e-28
0.0101698
3.06629e-06
4.32769e-44
1.80492e-15
0.00496491
-1.39192e-45
6.1268e-13
3.6207e-27
1.81999e-13
7.14499e-08
7.24241e-14
1.22687e-05
0.000301034
-7.41702e-19
2.32823e-18
3.97527e-28
-2.30834e-08
-1.06981e-27
2.24882e-22
-6.05741e-23
-7.52007e-32
3.46537e-07
1.16165e-22
6.45834e-22
2.08809e-15
-0.000126283
0.262917
1.33035e-10
0.0835699
5.58253e-19
1.00437e-14
1.19863e-29
9.09906e-20
-2.09943e-14
-3.14662e-44
5.5926e-25
-1.0982e-43
-1.92554e-23
9.84182e-14
8.88796e-18
0.404793
-3.47938e-39
-2.47494e-30
-1.9172e-30
8.67286e-40
2.63082e-27
1.9703e-31
0.0092297
1.53187e-11
-1.45826e-21
1.25896e-09
3.22245e-20
2.60753e-33
-2.06001e-16
1.35879e-25
1.2501e-13
1.34904e-06
0.0168472
3.04957e-23
1.17121e-16
1.70349e-09
0.664798
8.77039e-14
1.37285
1.65782e-17
-2.05154e-15
0.306017
8.63259e-05
-7.13127e-39
1.56936e-14
-0.00788763
-1.05893e-39
2.96607e-24
2.22196e-06
5.36461e-15
7.86453e-26
-5.33492e-35
1.08527e-16
-2.05507e-36
6.46179e-35
2.81065e-40
-4.27932e-08
7.82813e-17
1.18298e-32
1.26679e-07
2.80664e-18
0.0133153
-1.55863e-10
1.10224e-14
0.000242573
1.65384e-11
4.96708e-21
2.45206e-06
-2.13122e-39
1.41581e-23
6.91032e-23
-1.42942e-20
2.41889e-12
-6.97692e-42
5.40216e-10
1.29168e-31
-2.6792e-16
0.86915
5.21981e-24
6.65235e-24
-1.29017e-35
4.07341e-40
1.83434e-11
3.45068e-12
2.0438e-37
-1.13506e-21
1.36613e-25
3.16403e-06
0.136089
-1.13098e-42
1.00225e-07
0.84547
1.54012e-24
3.13044e-21
1.26904e-09
8.6588e-25
-1.66525e-20
-2.69248e-37
-1.58935e-45
-3.01392e-36
5.0077e-40
2.09814e-36
2.98092e-12
-9.57627e-32
4.25387e-31
0.280663
-9.78885e-43
-4.6909e-42
8.8341e-05
2.42503e-17
3.90355e-43
-8.02261e-06
5.80529e-06
-1.17202e-43
-4.16898e-36
6.64232e-17
2.85276e-18
0.229851
-2.28833e-22
2.7277e-36
-1.12619e-14
-0.000126014
1.97354e-05
-4.7915e-24
0.000111899
7.01833e-30
1.629e-36
4.32331e-38
-4.95684e-40
-5.6561e-31
1.34581e-25
-2.13863e-16
1.78735e-39
4.07632e-26
0.00133244
1.28361e-39
2.22992e-09
-1.90493e-30
-3.83503e-38
1.43318e-20
4.94931e-36
4.27579e-22
7.33533e-28
6.90822e-06
1.73153e-36
-2.66043e-29
2.38946e-35
-1.04307e-40
-4.85491e-44
-5.16751e-32
6.04002e-05
1.22776e-37
1.0965e-27
4.79043e-26
-6.44608e-38
-1.14936e-29
8.13076e-06
4.53152e-41
-6.40352e-32
0.727536
0.00479146
-7.62326e-14
5.34687e-17
8.48036e-28
9.86148e-18
4.42134e-26
9.02433e-41
2.19018e-12
6.31158e-07
8.41189e-22
6.69754e-33
2.92577e-13
1.96204e-12
3.57716e-05