/*--------------------------------*- C++ -*----------------------------------*\
| =========                 |                                                 |
| \\      /  F ield         | OpenFOAM: The Open Source CFD Toolbox           |
|  \\    /   O peration     | Version:  4.1                                   |
|   \\  /    A nd           | Web:      www.OpenFOAM.org                      |
|    \\/     M anipulation  |                                                 |
\*---------------------------------------------------------------------------*/
FoamFile
{
    version     2.0;
    format      ascii;
    class       volScalarField;
    location    "3";
    object      T;
}
// * * * * * * * * * * * * * * * * * * * * * * * * * * * * * * * * * * * * * //

dimensions      [0 0 0 1 0 0 0];

internalField   nonuniform List<scalar> 
26625
(
-5.0317e-21
-2.43611e-09
1.40662
7.67162e-07
-1.96815e-24
-4.22458e-20
-1.21904e-10
6.87972e-19
2.49697e-08
3.11574e-05
-6.2194e-29
6.58981e-06
-9.39366e-21
2.24379e-11
1.28947
-5.54708e-21
3.96815e-13
0.0413565
1.60794
-3.07119e-05
-9.3345e-17
3.36356e-16
-9.26128e-30
3.19086e-12
-6.47634e-19
0.00723918
4.86706e-07
4.72422e-14
-6.38001e-21
1.95718e-09
1.54246
0.0394895
-0.0220708
0.970824
5.74376e-24
3.58298e-25
1.76735e-13
0.413308
2.11549e-10
4.954e-14
1.90035e-13
0.0226109
1.88059e-11
4.23186e-09
-2.4275e-19
2.03215e-07
2.1122e-13
1.41916
3.75035e-14
-1.81599e-27
1.30352e-06
1.00694
-7.98753e-06
6.04611e-19
0.981663
4.70586e-11
3.58972e-07
1.74151e-06
4.16507e-16
1.48928
-4.68863e-35
-3.05284e-22
-5.23296e-19
4.44139e-10
0.0299247
-7.02398e-32
2.39601e-06
0.767181
-6.33087e-06
-7.21913e-09
1.43116
-1.44044e-24
-1.49275e-08
1.1028e-21
-5.83003e-30
1.67471e-09
1.3686e-28
6.39625e-33
0.00756454
0.0727115
0.947452
2.47983e-12
1.48149e-08
6.15151e-06
2.5601e-10
0.0312198
-7.61963e-25
3.15131e-32
5.01459e-15
1.62053e-06
0.765237
1.44124
4.10923e-08
6.74803e-10
-4.52234e-05
1.05006e-05
0.234969
1.22097
1.53704e-09
0.0275643
0.41227
0.0208115
1.13029
0.129
-1.418e-19
0.82675
-2.65948e-31
1.45666
0.123391
-9.02781e-20
7.92099e-07
1.92318e-14
4.86896e-08
1.38313
0.00953363
1.50881
4.75219e-29
-1.01705e-25
6.93713e-14
1.46806
1.1682
0.347793
1.33437e-25
5.05334e-16
-2.07776e-16
0.182313
0.022305
6.68745e-35
1.06788e-06
0.00654885
1.46302
7.65522e-06
5.4797e-10
-2.41083e-19
-3.72267e-17
3.46233e-09
8.98067e-11
-3.78847e-32
1.6685e-06
-1.24629e-15
0.0298369
1.96288e-05
-1.46975e-15
-1.06527e-10
1.60054
9.19876e-07
0.0224044
0.60314
6.42517e-13
3.00171e-33
2.31074e-07
-0.00545837
-0.00527639
5.23906e-11
-1.48509e-34
1.96446e-06
0.00360423
0.000148232
0.0646049
0.256553
1.56695e-13
0.9867
-0.002019
0.0887062
-2.13046e-29
-2.21316e-18
1.02151
0.363445
-5.47405e-14
3.38873e-27
-1.2704e-07
-1.54488e-28
1.11962e-10
3.09498e-08
4.78226e-34
3.84445e-05
0.470962
1.41758e-10
0.277375
6.87975e-29
-9.92588e-13
-1.15307e-13
-1.90943e-28
9.43368e-07
3.99064e-10
0.322037
-1.27531e-09
0.0494794
1.27458
0.0922897
-2.82206e-06
4.58739e-05
7.77968e-07
0.015775
4.06987e-08
9.06783e-23
0.000417974
-1.87451e-16
0.0504577
1.08323e-25
6.01059e-15
0.652847
9.52505e-27
2.28888e-12
-5.37456e-28
-1.07665e-05
0.00114005
1.48397
6.07125e-16
-3.66542e-06
6.05127e-28
-0.00621193
5.07331e-22
0.935863
-5.46722e-19
-0.000793844
-5.14132e-08
3.42851e-14
5.80565e-13
0.537301
1.46231
-5.27852e-29
-2.35731e-30
1.62602e-13
3.12474e-13
0.293371
3.80687e-24
-0.000664284
9.28369e-13
-1.80967e-08
1.23095
5.43987e-13
1.45443
5.79439e-11
3.74615e-28
7.26913e-13
9.89753e-07
7.25525e-12
-1.88213e-29
0.540176
8.19578e-08
1.10107e-06
1.04075e-05
-6.16969e-29
1.0275
3.91114e-10
3.77489e-16
1.33028e-25
-1.14972e-29
2.52723e-07
1.60928
1.08216e-14
1.41578e-11
-0.000544296
2.71314e-15
1.19472e-13
-7.53958e-33
-8.13584e-16
-2.01099e-09
0.633478
-1.15109e-20
0.242873
3.54287e-07
6.51213e-11
1.36673
2.30271e-05
5.9256e-26
8.17867e-23
9.66539e-13
1.83718e-05
1.33477e-11
0.368624
1.29272
8.31838e-13
0.169455
2.75362e-33
-2.91618e-06
4.13567e-07
1.4874e-07
-3.20484e-12
2.59713e-16
4.00464e-29
3.82793e-07
-0.000771221
3.25012e-06
1.1276e-28
5.57672e-06
-1.20081e-21
0.085252
2.1449e-14
-7.48019e-30
-1.12508e-16
0.193954
1.66078e-09
3.25798e-08
3.54569e-33
-6.80186e-34
-0.00028373
-1.96596e-26
1.47267
0.0172787
-1.3772e-16
1.46208
-9.3771e-22
2.1833e-07
4.93564e-35
-4.2289e-26
5.86675e-19
1.38769e-28
3.75173e-16
-8.01685e-14
3.34908e-36
-7.86579e-33
1.09264e-06
1.00654e-07
-6.56501e-08
-2.25389e-08
-1.42241e-13
3.80681e-05
-3.01823e-10
-2.92311e-34
9.71016e-11
3.90052e-14
5.17461e-15
6.96129e-34
-4.76765e-09
-2.96876e-05
0.397611
-9.35575e-10
2.89684e-12
-1.37237e-06
-6.05847e-19
0.44074
1.1789
4.20644e-07
1.12761e-14
3.03468e-06
4.63846e-14
2.04238e-35
0.363353
0.802163
0.250409
0.0780599
4.46149e-12
-5.51268e-06
3.27981e-06
-4.05597e-05
1.81804e-09
3.26959e-15
1.34519e-12
1.52253
5.42539e-13
1.10475e-12
1.70352
5.29659e-12
1.47954e-06
6.45688e-09
0.198705
1.15672
0.718941
-0.00212298
-5.64817e-27
-4.84113e-07
5.26412e-14
0.420679
-3.14017e-09
3.50621e-10
0.0598605
0.24453
2.04018e-10
0.885234
1.42279
-1.70719e-08
-2.64844e-28
-1.44836e-19
0.0290583
-1.72026e-09
-2.70456e-31
2.14653e-32
1.78182e-05
0.00255901
-0.000230623
7.8407e-08
2.95535e-05
1.48983e-07
0.000241959
0.257499
1.05029e-10
1.19812e-13
8.05104e-13
-1.11305e-31
-1.23776e-17
1.20491e-12
5.53012e-06
1.02893e-11
4.01433e-05
1.61621e-05
1.30872e-12
-0.00157788
1.77747e-07
-4.06285e-06
0.409125
2.22079e-06
1.28829e-27
2.8264e-20
6.29004e-12
0.274239
-6.99799e-16
-7.14966e-12
0.0146311
8.11598e-07
0.0103472
-3.72527e-22
-7.51689e-27
5.02102e-11
1.43047e-06
-0.0112714
1.70966e-06
8.30316e-06
4.62e-24
-2.9098e-30
5.38653e-23
0.102115
0.192122
-1.45663e-12
3.48261e-18
0.807946
-4.03149e-08
2.02171e-28
-2.70569e-07
8.61865e-05
2.75903e-07
1.7987e-11
1.57933e-28
1.89273e-05
9.28963e-06
5.46945e-30
3.49484e-11
-1.1144e-17
9.15597e-06
4.05496e-10
-1.28175e-26
1.66244e-07
-1.67064e-06
1.30894e-06
1.57001e-16
-1.56521e-36
3.36301e-06
1.8879e-14
1.85246e-06
-1.22858e-06
0.764644
9.52276e-28
0.0198445
1.55089e-15
1.71616e-16
4.04537e-10
-3.06425e-30
-2.79707e-20
1.36187
7.66537e-08
1.43486
2.24874e-19
1.95768e-07
3.95746e-12
4.30147e-06
-1.9231e-36
1.0458e-06
7.62213e-09
8.17393e-33
-1.34562e-25
0.0013327
2.69961e-12
-9.37805e-09
1.70278e-11
-1.35279e-23
-0.00381155
4.20644e-07
-0.000392188
-9.8328e-29
0.00279202
-5.74241e-22
1.3601
-1.31651e-28
4.57694e-15
2.17271e-15
1.66435e-09
1.51929e-06
5.74059e-09
-3.08101e-20
6.44541e-05
0.00174623
-1.41745e-20
2.534e-06
-5.44778e-28
1.20653
0.00238355
0.00115357
3.18389e-08
-1.07997e-20
1.60323
1.12498
0.0999775
1.53193e-08
0.000889343
-8.98092e-31
1.39498e-10
0.872578
1.64146e-06
5.01693e-18
2.65022e-09
0.380979
0.00572395
0.159787
-5.79374e-21
-4.91046e-28
-1.94518e-09
3.52169e-17
-2.3979e-18
0.035044
0.0223994
0.0440368
-7.3454e-32
-1.14269e-11
2.21851e-10
4.17548e-30
0.0125689
1.9678e-08
-1.07141e-08
5.07588e-18
3.8587e-19
1.41547
2.87727e-05
-1.17253e-09
-0.00141229
-0.00144464
3.38312e-05
4.90285e-08
4.83487e-07
-1.67992e-20
5.18114e-11
0.0538156
-2.23861e-27
1.53468
9.64285e-12
5.04967e-09
8.67656e-16
1.79411e-14
-1.11028e-18
-6.78688e-22
0.0412256
1.99479e-19
0.0445657
1.21813e-12
-2.05335e-09
-2.63451e-08
-0.0035536
-1.04729e-07
4.18613e-05
0.376201
4.01497e-12
1.34196e-13
0.823442
1.40352
-3.47904e-12
0.628305
6.29252e-29
7.36487e-07
0.0724481
1.84953e-28
-2.82447e-18
2.0325e-21
4.63568e-05
1.60905e-08
0.00237396
1.44867
3.88476e-32
0.740134
3.48266e-24
2.50674e-14
-3.27622e-25
1.07209
-6.35801e-14
6.46029e-07
1.56292e-10
-4.09499e-15
4.10776e-05
6.06314e-15
0.000205642
1.33962e-13
4.43541e-11
4.00048e-05
5.44595e-14
1.03417e-28
6.1504e-17
0.813693
0.716323
1.13737e-06
1.6002e-06
4.35361e-14
-7.84082e-24
3.88356e-08
0.996824
1.75365e-08
-3.39235e-27
5.00905e-08
1.26756
6.7504e-12
0.0530848
-6.35382e-13
0.594608
0.408781
-1.38318e-16
0.0443742
1.50317e-06
-9.40141e-05
1.06958e-07
1.16243
1.58848e-18
0.54155
9.01941e-08
-1.12692e-24
3.36342e-10
2.90343e-06
4.96259e-05
1.50276
3.94226e-16
1.8322
2.03883e-05
-2.79702e-07
4.82786e-27
-3.94584e-10
5.59813e-08
-1.10693e-15
-1.32565e-14
9.28605e-26
2.76718e-12
7.71347e-05
4.81477e-09
1.16007e-07
1.80298e-28
4.80613e-20
0.228601
2.83033e-18
1.68695e-06
3.70216e-05
4.37417e-14
1.6483e-10
-7.68965e-20
-9.14445e-28
0.012508
4.88958e-17
6.79431e-25
0.394549
0.57523
1.51011e-06
2.17868e-14
3.17207e-10
0.221312
0.000354915
-3.35362e-23
1.08971e-14
0.731878
-1.87395e-21
-0.00838599
6.18919e-06
0.000158464
0.863201
2.99275e-08
-3.23671e-27
1.91918e-09
6.36667e-06
2.15775e-24
0.41013
4.58063e-33
-1.34181e-23
-0.00123065
0.320225
2.99153e-13
5.89307e-23
2.94284e-05
-1.48382e-18
3.28286e-08
3.0351e-25
5.26105e-14
-8.16903e-31
1.27131
3.08769e-17
-8.76674e-06
2.49605e-10
-1.85137e-27
-5.27092e-34
3.78483e-19
4.08416e-14
-9.7481e-26
-9.64448e-19
1.22451e-14
0.779779
3.40302e-13
2.26196e-07
7.6455e-13
7.71909e-10
2.6918e-17
1.451e-10
6.4728e-36
3.28602e-07
8.77e-25
9.44909e-07
3.74221e-06
0.0110309
8.30438e-32
1.72682
7.80271e-22
5.48572e-34
-7.79431e-33
6.27258e-23
-1.27751e-34
0.970322
0.652691
8.16749e-11
1.33866e-15
0.00180315
-2.58026e-05
3.26637e-34
2.5285e-05
0.328727
4.6465e-28
1.93417e-05
8.02217e-17
6.58025e-09
1.52736e-15
-8.32924e-18
-0.00027763
6.63428e-12
-9.59349e-26
1.47871
1.55078
0.45852
5.24595e-08
-4.55298e-26
4.1087e-11
1.89862e-10
1.19099
5.32033e-10
2.45356e-16
3.925e-34
0.167173
4.40627e-09
5.52627e-08
0.0282415
1.66247e-09
0.565842
1.49037
-5.757e-25
1.1957e-13
2.74712e-07
-3.40719e-16
2.34706e-11
8.42418e-08
0.000103935
2.77817e-25
9.30334e-16
6.63833e-07
8.09474e-10
-1.93226e-15
-1.68192e-06
4.09259e-31
1.16078e-25
-0.00325523
1.36091e-26
-1.20891e-20
-5.95387e-20
2.3254e-06
9.92091e-07
-1.66472e-28
1.50857
-1.21957e-17
1.2534e-07
-1.53687e-19
1.39428
1.0549
5.96368e-19
0.0530047
6.08852e-09
-0.000112361
2.92479e-18
2.65001e-14
3.66044e-13
4.30806e-20
8.6487e-11
0.00353479
7.15457e-11
9.34137e-09
2.14704e-08
1.4197
0.652959
3.27016e-06
1.08941
1.59401e-13
5.34278e-10
1.17935e-08
2.53807e-09
1.46171
-1.19013e-07
0.0113931
0.12753
9.80671e-08
5.92643e-09
1.29932e-32
1.11461e-12
1.66719e-29
4.28114e-23
0.0137295
5.96664e-08
-3.27294e-24
1.71796e-14
-2.29943e-26
2.28474e-08
3.91891e-08
0.000427515
6.0391e-12
1.22909e-34
2.53337e-27
1.04653
3.33718e-11
3.72729e-28
0.53923
-0.000125417
-1.50979e-19
2.49862e-07
-8.88515e-07
-5.66485e-16
0.126507
1.55022
0.0775465
7.23527e-27
3.19984e-15
2.11417e-06
1.23242
4.94057e-24
1.18054e-13
-1.58477e-24
2.11231e-05
5.3563e-15
-9.20877e-05
9.47685e-21
-4.19252e-21
1.13879
3.99236e-05
-2.32715e-25
1.49118
1.08797e-06
3.37188e-06
-6.26368e-24
-4.74306e-34
8.02886e-05
1.54548e-12
-4.21503e-15
2.29318e-05
8.80697e-10
1.43306
2.08518e-06
2.1198e-25
1.88937e-15
7.26014e-16
1.77003e-13
6.86872e-06
4.80745e-07
1.96747e-28
1.46811
4.93551e-29
-6.88328e-05
6.22957e-15
-2.50283e-18
2.36809e-07
2.84342e-14
1.59183
-7.66447e-36
0.997758
1.11807e-09
1.52839e-16
2.52325e-17
9.57289e-13
0.196054
4.92136e-08
1.50945e-14
0.000168031
1.31374e-09
-1.0722e-29
-4.45382e-14
1.46044e-27
7.47229e-13
1.26767e-27
5.22087e-12
3.88077e-27
2.46704e-20
1.01815e-08
8.27672e-07
5.24494e-06
3.63259e-15
3.8606e-10
-4.64834e-28
-2.01979e-24
1.52828
6.90119e-08
-9.34801e-17
-3.34456e-20
-1.95359e-07
1.40011e-28
5.20424e-10
1.87343e-14
7.72439e-06
-4.3183e-25
4.75206e-34
9.29331e-10
0.00607284
3.27715e-29
-3.27324e-16
5.57556e-18
0.41805
0.119121
-9.77678e-10
2.48981e-31
1.33044e-07
-1.81209e-32
-3.52522e-09
0.268012
5.39942e-11
1.72477e-08
2.86003e-12
6.1927e-16
-1.10857e-29
9.30607e-15
1.25937
2.35489e-05
-5.34444e-13
-5.25269e-29
-3.36166e-07
4.39536e-34
1.43488e-06
0.0106561
-8.39633e-08
-4.58901e-11
1.38005e-09
-2.2375e-26
2.28479e-16
0.473818
0.000145225
-2.28568e-06
7.14477e-31
1.32396
-2.53639e-31
-1.12252e-07
0.000361956
4.19299e-11
1.5771e-23
-6.66324e-21
-4.20361e-25
1.16012
0.157644
0.84232
3.39128e-14
3.08193e-21
0.143363
0.981079
1.0488
-3.5479e-14
1.05689e-25
-1.45695e-31
0.0103166
1.88648e-16
1.11647
2.17674e-07
-5.35701e-14
4.84909e-07
7.08145e-18
-2.00496e-16
0.196924
2.04348e-29
7.76943e-14
-6.81217e-08
1.00516
0.895821
4.34182e-21
2.65842e-22
0.963391
-2.55118e-28
2.41063e-25
5.11138e-13
3.01579e-31
0.415555
0.00167091
-7.23114e-21
1.36155e-14
-5.5801e-21
7.37325e-16
-7.24762e-08
-0.00781338
-7.4759e-15
-3.85311e-28
1.78721e-13
1.61073e-05
-1.71286e-22
5.07452e-11
-7.53789e-11
5.41239e-08
0.211332
-4.7252e-09
-0.00131588
-3.33848e-18
5.33688e-25
3.95939e-14
1.80587e-06
1.48795
-3.26242e-27
-1.18063e-10
0.0379865
3.52606e-31
0.974285
-4.28656e-21
-2.26815e-21
2.98893e-11
3.37778e-07
2.03271
0.555301
1.78459e-19
1.03993e-13
0.866954
1.49067
7.87967e-11
1.84066e-06
0.133031
0.660911
1.00704
-2.12029e-28
-1.99382e-08
1.92362e-12
-1.25557e-21
3.28456e-10
2.22161e-14
-3.15632e-19
0.966995
0.242706
-2.88755e-06
2.75458e-30
9.3001e-06
1.69952e-12
2.15885e-13
1.09637e-15
4.04584e-06
2.89803e-14
2.24998e-12
-2.10086e-21
0.313172
-3.46035e-34
2.71129e-05
-1.72433e-26
1.46291
1.48675
0.916432
1.47257
3.46843e-24
1.5703e-09
-2.08776e-29
-3.0384e-28
0.019005
5.79492e-08
-7.21779e-16
9.68121e-11
2.18517e-06
8.48762e-06
-1.19876e-08
3.39167e-08
0.00661099
1.0537e-16
0.050934
1.91607e-23
-2.5536e-06
0.997545
1.23241
5.74002e-15
2.81356e-28
1.27889e-11
1.4656e-25
0.070427
8.35504e-33
0.904482
1.03731e-07
1.55758e-13
-1.31729e-27
1.0669e-12
2.97052e-08
-1.39104e-12
3.17125e-14
0.0771312
1.42245e-26
-0.000774005
0.00443336
4.00295e-06
0.529654
0.708255
-1.6938e-07
2.76109e-26
1.90636e-14
0.0374769
-4.04903e-29
1.60943
3.99156e-06
3.36447e-16
-7.15269e-27
9.5748e-08
1.50522
5.82345e-09
1.39714
1.86817e-06
7.08818e-07
1.12528e-05
-1.53985e-25
2.45171e-26
2.48058e-05
-0.00144074
6.68836e-15
0.155923
3.55704e-19
-9.7251e-28
1.50815e-32
5.62666e-21
5.60823e-05
0.0204922
-2.8494e-16
4.89385e-11
2.08785e-28
1.27421e-12
2.9317e-11
-1.05314e-27
1.55289e-07
9.92173e-14
1.45671e-05
-0.000323014
-0.000304604
0.800915
0.0902358
0.253993
0.994715
4.07081e-12
4.61458e-22
1.08045
1.89485
3.82833e-32
1.20216e-11
-4.38857e-10
1.49418
7.05727e-06
4.24676e-14
-1.91233e-31
2.13738e-10
0.0313797
-0.00456642
-0.0565289
0.000555602
1.15054
2.41271e-08
1.73831e-05
0.000420859
3.20454e-13
2.63404e-30
4.59878e-06
1.47147
4.71965e-12
0.152201
4.00419e-07
1.74392e-21
2.27058e-05
1.75551e-14
-1.23967e-15
1.44059e-14
0.921771
-2.47633e-12
0.697043
1.06257e-21
1.38448e-07
-8.23912e-13
-1.09979e-22
3.73783e-06
-6.73895e-09
4.01257e-07
1.47449
8.62638e-07
1.93306
1.57581e-12
4.80013e-32
1.06608e-18
1.49781
5.10363e-06
-0.0052089
1.22503e-08
-2.35637e-23
4.90447e-33
-1.78034e-17
4.98206e-14
4.52559e-10
1.45577e-13
-2.57842e-25
1.37294e-06
-1.06201e-13
9.75718e-06
-2.8461e-18
-1.27427e-10
4.8813e-05
1.06656e-11
1.28805e-06
2.01424
-1.44072e-27
-1.0178e-34
-1.15961e-16
2.0587e-09
2.2769e-07
1.09407e-15
-1.70994e-09
1.64399
3.1555e-07
7.40133e-10
0.83786
1.09851
1.593
2.66782e-22
1.82574e-08
5.79311e-08
-2.62212e-13
1.69117e-25
2.15562e-11
-3.9466e-09
2.04046e-12
0.000835312
1.69605e-12
1.54987
-5.49661e-17
1.80968
0.127558
2.38324e-05
0.927753
-8.54623e-34
-0.00744298
6.4345e-07
-1.13578e-33
3.47726e-14
-5.60858e-17
8.45393e-10
1.4327e-14
-7.23997e-18
-2.98355e-10
0.00171916
2.41161e-09
-1.25025e-35
1.03744
5.3466e-09
0.0166024
1.39255
1.43712
1.70946e-08
0.120438
3.05408e-14
1.20583e-18
6.56433e-25
2.62649e-35
-5.24034e-16
4.70329e-14
3.87536e-11
-3.1407e-09
1.23856e-35
0.799329
-3.94074e-36
-3.03518e-06
4.01518e-32
0.202823
0.113747
6.56492e-07
-1.1319e-24
-8.85916e-29
1.27411e-14
0.166777
0.937537
1.93725e-06
3.85179e-11
2.42309e-07
-2.98129e-27
-1.9637e-09
-4.38059e-10
7.95413e-07
1.17409
-2.74099e-21
0.032146
1.81647e-13
2.87728e-15
1.66494e-08
-3.94372e-29
0.479817
0.0685972
0.0665183
1.71522e-05
0.0165911
4.39517e-05
-2.73563e-19
-0.000529916
0.0998822
0.0154495
-2.5063e-24
2.19376e-07
6.51318e-24
1.61541e-08
-2.35053e-10
-6.443e-20
0.319328
2.23307e-14
-1.20466e-09
1.12638e-10
0.552005
-1.13585e-10
1.56038e-16
1.7658e-08
0.27105
1.5739e-28
0.691163
-1.02886e-07
2.28443e-21
-2.87122e-30
-5.30955e-27
0.0151122
0.883447
1.54757e-12
1.41227e-06
3.03452e-08
6.77519e-10
-1.13382e-19
2.80553e-33
1.53346
0.0206419
0.0130358
3.62719e-07
6.07954e-08
1.63896
7.3426e-14
2.47981e-06
-1.74891e-14
-1.28552e-21
5.70991e-11
1.3581
1.50183e-07
9.18339e-15
0.367039
3.71982e-07
-5.2313e-08
-4.16608e-29
7.74238e-07
2.45404e-08
2.41103e-14
3.80505e-19
1.20925e-05
-3.58496e-07
1.17754e-08
4.02083e-17
6.9803e-28
-1.91952e-05
1.52562
2.24889e-27
1.96755e-09
6.75295e-32
1.42333e-23
-7.60854e-15
1.39435
1.5936e-12
1.04134
1.59239
1.73319e-31
4.58531e-11
0.00612442
-5.14607e-25
0.577087
-9.39884e-16
-0.000228537
1.47801
1.26006e-06
-0.00036769
-6.42931e-05
0.192864
1.45241
4.5095e-22
1.29007e-10
5.88308e-28
2.94772e-10
0.000547716
-1.42772e-05
6.53895e-12
2.19482e-17
0.499821
1.36591
0.0100144
-6.13018e-06
1.43969
1.12396
0.118184
1.57538e-07
-1.26916e-22
2.68799e-06
1.30056e-15
-2.01694e-24
-7.23652e-05
2.09036e-12
-3.16671e-11
3.02844e-07
0.100643
2.32879e-05
-0.000266461
1.49316e-14
-1.34908e-23
-0.000431319
1.45797
2.28667e-23
8.77812e-35
1.45968e-13
1.35604e-06
1.5547e-11
-4.63319e-16
1.18842e-05
4.05265e-07
9.48515e-10
-5.18922e-14
0.0567179
9.40341e-13
-2.80059e-09
0.978667
6.76971e-13
1.61087
1.84617e-09
0.0459531
2.56212e-11
9.29946e-15
-6.76351e-13
5.72826e-13
-1.2602e-29
1.44642
-1.70892e-14
-1.01714e-25
1.21009e-13
5.79774e-10
0.139896
-1.06739e-24
0.981759
1.3167
9.80035e-08
1.68356e-16
8.0974e-28
-5.51025e-15
1.77554e-32
6.26018e-09
-3.10862e-11
1.38569e-05
-2.32276e-06
1.50051e-15
2.41675e-13
4.10511e-16
1.38568
4.46776e-26
2.58966e-17
-6.07034e-09
9.94415e-16
-1.89775e-19
0.973324
3.03722e-29
0.00278988
3.81929e-11
4.9786e-35
-1.20277e-05
-2.15286e-10
0.000584016
5.78337e-12
4.57869e-22
2.53721e-07
8.33659e-11
1.68371e-30
0.00103867
1.58153e-26
-1.62736e-15
4.24989e-29
0.726744
-1.17161e-18
3.52926e-05
1.20728e-11
1.60438
1.57427e-06
0.145376
4.36628e-06
-3.54076e-25
2.42219e-13
4.50007e-13
-3.29106e-11
-6.88462e-11
1.11047
1.42203e-18
2.54643e-28
1.14016e-15
1.2982
-0.00042918
1.13987e-25
2.0817e-14
0.846536
2.82304e-09
-4.65211e-12
1.6877e-09
-2.09564e-06
4.54983e-08
-1.72458e-20
1.14447
1.56806e-31
3.22599e-14
1.28698e-07
0.253772
1.52905
1.29796
-5.03275e-33
1.48075
-1.3581e-24
-8.31426e-18
0.0348209
6.21907e-10
4.97764e-26
3.26188e-15
8.05211e-06
1.82804e-07
1.57885e-11
1.08188
-2.35578e-17
0.000138345
3.19859e-09
-1.5306e-11
-1.46875e-22
2.70933e-30
2.99186e-24
-3.07837e-05
0.00392783
0.759606
1.00938e-07
7.53793e-07
-1.19904e-19
-3.63169e-28
-9.58831e-06
2.02836e-15
0.715186
7.00266e-29
2.4841e-15
3.2888e-07
1.27524
1.70313e-06
7.71063e-23
-1.33572e-05
0.0887032
1.8293e-08
1.05695e-24
2.50251e-16
7.29554e-13
1.48452
-6.06778e-29
1.51467
5.61647e-10
3.6256e-29
-7.80144e-20
-3.16828e-24
0.00234569
5.6526e-17
2.93935e-15
1.7559e-11
1.21689e-05
-1.18001e-06
-3.84015e-13
-0.000691332
3.50116e-10
4.55113e-08
-0.00744881
2.27372e-17
1.41535
1.40512
1.97885e-07
0.347552
1.43523
-9.27702e-05
0.0093767
-7.35534e-15
5.27163e-12
5.95454e-07
1.42684e-20
1.13805e-15
2.02872e-10
2.49036e-06
-5.59756e-23
2.82894e-12
1.34743e-10
-6.54664e-12
0.0160569
0.00387324
1.08984e-28
0.000235506
8.07084e-07
1.56692e-25
1.34027
3.67123e-31
0.0117271
2.73362e-19
1.28818
2.15982e-30
-7.52827e-05
2.9052e-08
6.13325e-14
1.27809e-13
2.76602e-27
2.28035e-05
0.00852692
4.80419e-10
1.52125
-6.15506e-29
2.65943e-20
0.638767
-3.53251e-26
1.47747
0.00582802
1.48875e-24
5.89857e-33
1.91688
0.690278
-8.20753e-06
-1.8438e-09
-1.45765e-24
-3.36958e-30
-3.8033e-23
-6.32659e-34
1.06541e-12
0.00189316
-0.000733791
7.92253e-16
5.77825e-18
-1.05133e-05
-6.01765e-24
7.55913e-09
3.92068e-28
1.58385e-16
1.2503e-07
1.05502e-28
0.00487898
-3.10984e-07
0.994386
4.87325e-14
-1.37651e-21
-3.85647e-23
-2.98496e-15
-9.74194e-28
-1.24299e-16
-0.00155235
1.1107e-12
6.3498e-11
1.89831e-13
1.54152e-05
1.99762e-16
-1.86941e-13
2.85646e-11
-2.52618e-11
-1.11597e-12
1.52292
1.95894e-35
6.02151e-10
0.0401113
0.00057026
0.000253354
1.66596e-25
1.06207
5.61793e-07
6.24692e-24
0.00234854
-1.73556e-28
7.07129e-06
1.02807
3.15648e-28
3.12381e-30
1.43643
8.38618e-07
4.08693e-12
-3.05883e-29
-1.4139e-06
0.993325
7.86433e-14
-4.54553e-18
-2.52092e-20
3.72032e-15
1.41382e-08
6.83696e-08
1.0527e-35
3.1626e-12
2.86967e-14
0.47072
0.962403
-7.56994e-34
-1.90689e-11
6.98856e-11
2.22543e-25
2.9619e-14
-2.72412e-31
1.30456
-5.83908e-35
2.87545e-33
-1.24645e-34
-1.63329e-12
4.43107e-05
0.269706
-2.93341e-12
-6.52379e-35
2.11214e-29
-4.60757e-32
1.08666e-10
4.61075e-24
0.00384491
3.58567e-06
1.03504
-1.3077e-22
-1.26418e-22
9.30427e-18
2.04912e-07
0.123823
-2.3379e-05
2.20131e-06
1.04667
1.08628e-27
0.673835
-1.34193e-10
-3.86166e-28
2.61908e-20
4.63411e-11
1.37394
3.68154e-08
9.38796e-21
-5.64684e-05
5.14262e-08
6.66681e-09
2.52732e-05
3.18658e-12
2.05853e-25
3.31708e-05
1.6e-25
1.14619
5.0781e-25
3.75898e-34
-2.43072e-23
6.9827e-12
1.0288
-1.10421e-24
0.715106
-5.96264e-31
3.72851e-09
-1.90945e-09
2.25548e-08
3.04301e-17
0.000767886
1.06068
-2.23532e-21
4.48461e-10
0.000132547
-6.68834e-18
1.16478e-09
7.0325e-22
1.35531
0.00032088
3.6096e-13
-0.00332084
2.08889e-09
9.36802e-06
2.84789e-21
2.50491e-06
6.12447e-30
-7.08097e-34
0.94808
4.9338e-06
0.165437
2.24423e-06
0.281599
3.52755e-17
9.53043e-06
0.0161021
3.30682e-27
8.32616e-20
-0.00327141
-7.72358e-19
3.18736e-24
0.129941
0.593041
1.56369
1.68244e-07
1.61552
-0.000102921
1.70547e-13
-3.74017e-06
0.000319057
1.84556e-07
-4.78861e-07
2.51134e-08
-1.61362e-12
-1.026e-15
-3.85663e-10
6.04981e-05
0.00304504
0.0422777
1.10352e-23
5.49216e-24
6.97709e-15
0.0396927
0.771199
1.68251e-09
0.283439
1.1076e-19
8.07618e-14
0.943653
-1.3779e-09
0.580079
0.0427944
4.18794e-07
0.0569732
2.47331e-24
-1.21287e-10
-9.97372e-21
0.981704
-0.00194243
0.0650095
1.83557e-28
0.989111
9.84302e-08
-6.10245e-33
-1.4926e-29
1.41488e-19
2.78753e-20
1.52931e-19
-4.49527e-09
2.85344e-05
2.42538e-09
3.65716e-13
-3.65025e-24
5.74628e-07
0.000730844
1.33322
2.83249e-08
0.000342585
-4.72581e-30
5.15781e-25
0.0169241
8.91074e-06
0.0249786
4.91215e-08
-9.7563e-07
3.83434e-23
1.10957
3.60909e-15
1.3165e-14
4.98731e-06
-1.56596e-15
0.0417863
-0.00760894
-4.58265e-23
-8.75979e-23
0.731368
-5.04688e-16
1.10943e-11
1.09405
2.38912e-11
1.14511e-13
0.00284583
1.17042e-07
-9.93059e-07
2.92503e-07
-7.58987e-15
-3.86468e-28
0.343619
-1.19774e-19
1.39587e-07
0.171777
3.4099e-14
3.19219e-11
1.26312
-7.23093e-22
1.04714
4.29204e-06
4.64129e-13
1.63176e-20
-3.00349e-16
5.39842e-17
0.00432891
-3.60424e-23
1.50167
1.60258e-05
4.8704e-07
7.9145e-32
0.805138
-1.07663e-16
-3.99899e-08
4.10302e-09
1.7709
1.65927e-07
1.17191e-32
8.29565e-17
3.57966e-13
1.56463
-1.63686e-24
1.71788
6.94351e-12
3.95912e-29
5.90199e-08
-1.69023e-32
7.20561e-12
-0.000394019
0.0776305
0.00020055
1.02434
2.77742e-26
-4.41282e-16
6.92589e-11
1.3434e-14
7.88688e-15
1.50428
0.00859119
0.536572
2.51363e-26
1.3051
0.0110305
-1.55916e-27
-1.43858e-32
0.018232
-2.50409e-09
4.20906e-35
-0.090431
2.26377e-16
0.0300585
2.69713e-06
-3.08016e-28
0.241981
1.61261e-08
1.03448
-4.64689e-29
0.000196379
3.85361e-05
-3.70377e-21
-1.30517e-20
2.17094e-10
1.61582e-12
3.08394e-22
0.00314409
-1.60831e-25
0.54301
0.035371
4.81327e-16
2.10075e-07
5.21839e-12
2.62062e-06
3.62967e-05
-5.60457e-07
-2.36078e-09
0.000138154
-0.00736493
2.12409e-15
-1.38737e-16
1.42189e-16
0.0128565
-5.42467e-28
4.51288e-08
1.51346e-25
-1.25248e-07
1.55366e-24
6.3842e-06
-0.00088516
0.0735068
1.31791e-06
2.05975e-12
-0.000534323
0.879318
-2.95434e-20
1.42226e-17
-7.3784e-10
-5.29416e-17
-2.11606e-10
2.44354e-14
3.62845e-14
1.09218e-31
3.45659e-27
1.30081e-17
8.44244e-17
-1.05945e-32
4.12134e-27
2.7039e-08
-6.28532e-15
8.98097e-11
3.31006e-28
0.0287295
-0.000383702
0.234561
0.278119
0.011982
0.547843
1.48816
-4.33723e-29
4.50956e-22
5.70096e-16
1.48135e-11
-0.00945635
4.84133e-08
-1.28583e-22
0.0405193
3.98014e-25
-3.43042e-22
-1.40879e-32
2.49506e-13
1.11028
2.13601
5.23534e-10
0.00497092
1.62253e-31
1.58925e-13
0.664447
0.0618783
3.64416e-14
1.04167e-08
0.972463
4.16623e-12
1.68858
1.47439
4.44319e-05
3.76928e-07
9.14137e-11
-0.00216896
0.998999
1.75433
3.83846e-07
-1.0163e-06
1.11917e-14
-1.09534e-24
0.0120695
3.79542e-05
9.314e-23
1.67918
1.34485
2.05855e-09
0.986216
4.78169e-24
-8.06747e-33
1.09102
1.37786e-07
-0.0333067
-1.11432e-06
1.07561e-05
1.51022
7.1203e-15
0.885036
9.63375e-19
1.05679e-07
1.55043e-10
-6.54114e-29
1.63075
5.68228e-13
0.980181
9.46503e-05
-5.63581e-05
2.02248e-13
9.07175e-15
1.55094
1.42608e-11
2.83939e-08
1.2786e-08
-3.0004e-32
1.0719e-21
0.00723391
3.8974e-20
-4.46652e-11
1.20612
0.00897153
2.73359e-29
2.62329e-24
-2.02568e-08
-1.44641e-08
4.52253e-16
-6.39166e-10
1.46854
1.21908e-14
1.30979e-08
-5.16976e-16
-9.88106e-11
1.07102e-06
0.285757
1.34655e-24
4.85457e-08
0.199401
1.42144
1.22814e-18
7.89536e-21
0.0323472
-2.17091e-08
-1.27719e-13
6.13213e-24
2.18254e-31
2.54835e-15
-5.45504e-12
1.39415
-9.10691e-26
4.76565e-33
-7.21651e-22
1.41261e-05
1.17019e-09
1.61543e-11
1.87482e-14
-6.04104e-29
5.00629e-24
2.11485e-11
5.56808e-15
1.45138
2.8972e-08
1.50443
5.30188e-14
7.02298e-10
7.44775e-22
6.22917e-13
-4.22704e-27
-9.92897e-05
-2.3361e-19
0.00120433
9.25803e-07
1.53902e-05
-2.43891e-23
-5.82448e-24
0.91828
9.48401e-18
1.51585e-10
0.104829
-1.54342e-24
7.88753e-09
6.07441e-10
1.96046e-15
0.513418
-2.16637e-11
-2.76361e-20
0.275527
-6.83867e-21
-1.15895e-19
5.23242e-12
1.03536e-20
2.63997e-11
-7.48095e-26
-1.19619e-07
-1.11793e-20
1.34762
-8.46674e-16
1.68927e-14
3.81367e-26
0.00509458
1.6386e-24
0.00302575
5.09109e-09
-5.11794e-15
-8.09995e-22
-3.48998e-11
-5.9645e-19
0.000361181
0.0449436
3.19523e-06
0.543752
-0.000713649
1.4453
-1.40932e-21
0.0429485
-1.15854e-12
1.8382
4.67339e-11
-4.85298e-24
1.15053e-23
3.8216e-05
-2.1939e-31
-5.78984e-27
8.02727e-06
-7.32343e-20
2.02474e-07
1.04813e-05
1.55257
0.320744
2.55743e-27
-1.51253e-17
7.94025e-16
0.680661
6.28937e-25
-1.02691e-23
6.24548e-07
6.25698e-05
6.68505e-12
1.99615e-12
0.744667
3.28863e-26
-5.58838e-28
-1.66874e-16
3.78929e-07
3.11885e-30
0.69241
0.00266375
1.16022e-14
4.88344e-17
0.1933
0.00205769
-2.37456e-09
5.92847e-14
-1.92428e-19
-2.15411e-28
6.41298e-14
5.69936e-13
-6.02353e-22
0.141086
1.38638e-19
0.0119203
2.14646e-05
-3.27654e-17
4.38468e-09
0.590844
-1.87192e-32
3.29519e-15
0.0060172
-1.49923e-20
1.06022
3.65436e-09
-2.79211e-12
-1.15261e-17
4.50178e-11
-4.09261e-33
0.000655297
1.52865
-3.20252e-23
1.2062e-10
1.25905
1.41862
0.263601
0.0308236
-0.228064
1.26948e-12
6.75254e-17
-8.65036e-16
0.0058137
4.11134e-28
1.48048e-12
1.93203e-08
8.10595e-14
1.43322e-13
0.00612408
1.11936
7.20997e-15
-1.59064e-27
8.63899e-08
2.5721e-24
-7.92868e-32
-1.33463e-22
2.03571e-15
2.72309e-17
-1.80025e-34
-9.37521e-33
2.90637e-19
1.17941e-15
-5.85137e-20
9.58017e-17
1.25915
0.0290072
1.80088e-33
2.66021e-07
1.44335
-4.20282e-36
-7.72788e-07
1.0132e-16
2.56625e-07
0.00802074
1.36639e-08
0.164947
0.552101
-1.25099e-11
5.52468e-10
-1.84364e-19
-8.63041e-05
-3.33678e-18
7.07254e-13
1.42461e-15
8.80417e-23
-0.00404144
4.03322e-14
6.22779e-13
9.46612e-08
0.0219697
1.02808
7.42629e-06
1.02381
2.08692e-10
4.44368e-07
3.01798e-18
2.78937e-11
-1.56948e-07
-1.77642e-34
3.722e-14
-1.57072e-29
-2.6948e-16
1.64114e-06
6.86519e-10
0.98927
-4.0297e-30
1.10352e-21
6.27168e-22
-8.32931e-29
-5.89554e-20
4.08519e-22
1.64075
1.42485e-05
-2.4932e-11
0.000591982
4.15482e-11
-1.12687e-23
1.44058e-09
8.16327e-16
6.3206e-07
0.0489166
1.5024
5.65819e-14
3.56233e-08
7.86741e-05
1.05188
1.66973e-06
1.52277
7.96791e-09
-8.94173e-08
1.4989
0.301325
8.36026e-31
4.20546e-07
0.608015
2.07517e-26
-9.54578e-17
0.00266904
1.98376e-09
6.87007e-16
-2.04994e-26
1.59534e-08
6.16794e-26
3.96136e-24
-1.85306e-30
0.00092105
5.4045e-08
2.32963e-23
0.0121316
4.46452e-10
1.0907
-0.000335302
4.20237e-08
0.645443
6.25518e-05
6.0711e-12
0.0987505
5.06367e-27
5.19451e-14
7.9943e-14
-2.17995e-12
1.11201e-05
-6.82197e-30
0.00107473
-3.88429e-20
-1.16712e-08
1.02663
8.59361e-16
1.83738e-13
-1.11297e-23
-1.47957e-30
2.00874e-05
4.41711e-06
-5.39744e-28
-4.43815e-15
4.93115e-15
0.0972254
1.49397
1.91305e-33
-0.000808553
1.53839
6.85644e-19
1.79339e-14
0.000327714
3.67628e-15
-5.32807e-13
-3.11011e-26
-1.49784e-33
-7.66926e-28
-6.23895e-28
1.36802e-25
4.14218e-07
-9.64363e-23
1.13645e-21
1.46484
2.06126e-29
-6.62345e-29
0.258835
1.08502e-10
9.79109e-33
0.0613581
0.336088
-1.6537e-29
4.67616e-26
1.3271e-08
1.64433e-09
1.70044
-4.08529e-14
-2.7027e-26
3.61064e-09
-0.0639862
-0.00465716
4.49148e-16
0.173191
8.35778e-22
1.72464e-27
-1.58754e-27
-5.88861e-31
-5.8957e-20
1.13928e-14
3.21905e-10
6.06691e-30
5.64848e-16
0.938899
-1.8513e-30
0.00102701
3.04843e-22
1.47551e-27
3.59935e-14
4.01593e-27
7.16879e-12
2.75921e-18
0.0852025
8.30824e-26
-3.87023e-21
1.58274e-25
-1.06358e-30
8.02197e-34
-6.11375e-23
0.259547
4.88782e-28
4.92634e-17
6.6849e-15
3.80612e-28
-7.62776e-20
0.0763683
6.63307e-32
-6.34194e-23
1.62666
1.25169
-1.36766e-08
2.40143e-09
2.88617e-17
-3.88013e-11
3.4403e-17
4.63893e-31
1.44381e-05
-0.00157087
1.89183e-12
3.07328e-24
1.16341e-07
1.10253e-05
0.181988
0.976214
0.000620451
5.65621e-29
4.65448e-07
-5.18556e-26
-3.05436e-12
0.0159118
-5.33171e-16
0.136974
2.73801e-29
-1.5045e-19
1.97795e-18
-9.48635e-35
-7.24656e-05
1.77417e-32
1.35261
-4.1234e-09
1.63385
4.99373e-09
-1.673e-28
2.22223
0.337451
0.28703
3.28986e-33
0.311858
0.000110253
0.865679
1.36847e-09
1.17126e-09
0.48485
1.65071
1.62609e-05
1.18841
0.00120084
-4.98833e-31
6.74019e-13
1.02366
0.254051
2.07734e-12
7.13696e-05
-8.75708e-23
5.00115e-22
6.82401e-33
0.000939227
-4.03063e-33
6.17216e-10
1.41542
-1.28329e-21
-8.44022e-23
-3.45395e-09
2.21178e-09
-8.42849e-11
3.24924e-05
0.865081
2.96201e-28
-3.345e-07
2.09918e-06
5.79647e-18
2.21147e-19
1.14926e-11
1.47807e-06
1.16051
-3.98824e-12
1.6745e-26
0.0180601
-9.22267e-05
0.000256526
0.00029487
5.39502e-05
0.0604037
1.1887e-22
3.24474e-09
0.777887
1.31626e-14
-6.84026e-12
-0.000148529
0.00209159
-3.95883e-31
-9.59299e-21
1.23347e-21
0.0055942
6.59171e-11
1.0192e-26
0.900573
1.43163e-08
3.17633e-13
0.925666
-2.09399e-10
-0.000313394
0.11105
9.96427e-22