/*--------------------------------*- C++ -*----------------------------------*\
| =========                 |                                                 |
| \\      /  F ield         | OpenFOAM: The Open Source CFD Toolbox           |
|  \\    /   O peration     | Version:  4.1                                   |
|   \\  /    A nd           | Web:      www.OpenFOAM.org                      |
|    \\/     M anipulation  |                                                 |
\*---------------------------------------------------------------------------*/
FoamFile
{
    version     2.0;
    format      ascii;
    class       volScalarField;
    location    "11";
    object      T;
}
// * * * * * * * * * * * * * * * * * * * * * * * * * * * * * * * * * * * * * //

dimensions      [0 0 0 1 0 0 0];

internalField   nonuniform List<scalar> 
26625
(
0.000225114
0.227551
1.40212
1.61572
1.10852e-05
0.00106251
0.000805427
0.000588747
0.333161
1.61473
1.74063e-10
0.665282
7.00267e-06
0.962666
1.36668
4.36449e-05
0.485173
1.48748
1.59831
1.07499
-0.00167097
0.0476389
1.23374e-09
0.613324
0.000111947
1.3575
0.468033
0.259437
0.000575321
0.734163
1.54238
0.996207
0.109316
0.971111
-1.5371e-06
-2.79401e-07
0.0377783
1.43151
0.131025
0.305562
0.277709
1.4643
1.15075
1.45487
0.00204928
1.58408
0.0650903
1.5878
0.0416303
-1.20419e-09
1.62175
0.996957
0.909243
0.000207314
0.992312
0.229682
0.572861
1.47456
0.0286094
1.48787
-1.33471e-14
2.66109e-06
2.01875e-05
0.196397
1.44559
4.12281e-13
0.985258
1.54088
0.118209
0.268165
1.43012
1.81523e-08
0.177075
1.48994e-07
6.89119e-11
1.41478
1.1758e-07
1.77149e-13
0.943781
1.64051
0.947409
0.161584
0.776271
1.3637
1.05477
1.55906
-2.00289e-07
6.01371e-12
0.100289
0.758951
1.97784
1.473
0.329133
1.12121
1.07944
0.645281
1.03127
1.20812
1.15005
0.968837
0.646029
1.53828
1.51365
1.39951
0.000668002
1.03835
-9.49885e-12
1.3846
0.973693
2.19893e-05
1.59997
0.0142032
0.439455
1.38411
1.36978
1.51331
2.17379e-08
-5.85533e-08
0.097954
1.46893
1.40247
1.15659
-1.38223e-08
0.0594107
0.0115399
1.4845
0.907487
-6.25323e-14
1.06627
1.1421
1.42326
1.18956
1.16986
-2.79565e-05
-0.00417576
1.18072
0.897891
-7.13517e-13
0.701649
0.00740385
1.20079
1.68592
0.00461491
0.679661
1.59679
1.48254
1.11
1.57013
0.320998
7.43319e-13
1.41406
1.01727
1.35133
0.244607
-1.09728e-14
1.05604
0.954838
1.48713
0.983655
1.52475
0.360484
1.03983
1.12962
1.21084
2.79589e-09
0.000200796
1.56419
0.880549
0.116344
-3.03207e-09
0.947144
5.80185e-09
0.282179
1.05165
3.29304e-14
1.75249
0.854423
0.282411
1.32294
3.69836e-10
0.103331
0.0262545
-2.12917e-10
1.60542
0.375236
0.857843
0.656608
0.95009
1.62082
0.802852
1.05904
1.0124
1.37212
1.45512
1.39871
5.36469e-05
0.918447
0.00307632
1.51253
-1.92704e-08
0.0524395
1.46737
-1.1416e-08
0.619003
-6.5014e-09
1.12414
1.77968
1.4918
0.00858622
0.921941
-1.45676e-10
0.816342
7.53055e-06
1.02522
1.51456e-05
1.02367
-0.105244
0.0943922
0.465016
1.08447
1.46759
-6.854e-10
4.21965e-11
0.046921
0.668149
1.46777
1.04533e-07
0.973846
0.667503
0.717079
1.37561
0.44138
1.42737
0.137101
-4.16828e-10
0.3742
1.57004
0.6046
1.92136e-10
0.562018
1.48866
1.31244
1.43582
1.29839e-08
1.06221
0.517398
0.13666
-7.27799e-08
3.40255e-09
1.39111
1.5703
0.195784
-0.000112538
0.820898
0.234165
0.0343116
-2.18312e-13
-0.000119828
0.642848
0.672871
-1.47776e-05
1.717
0.67936
0.518089
1.36695
1.554
-2.8402e-08
-3.53414e-07
0.0970734
1.49509
1.12783
1.51671
1.26806
0.617254
0.326447
-7.01094e-13
1.04401
1.37281
1.13443
0.0907162
0.104897
-1.69841e-12
1.62639
0.991834
0.925285
3.58511e-08
1.41561
1.3751e-06
1.54602
0.0312098
3.04658e-11
0.00295489
1.29642
1.31587
1.00695
5.123e-12
-1.0022e-13
1.07285
1.27308e-09
1.42708
0.846044
-5.21172e-05
1.46081
4.28785e-05
0.1587
-1.67906e-14
2.50579e-08
0.00281144
1.45257e-11
0.0492276
0.0514864
-1.90176e-16
2.8513e-13
1.42492
1.20667
0.729252
0.857175
0.0931054
1.71633
1.38311
-3.3392e-14
1.03851
0.0812962
0.0299663
4.82589e-12
0.671407
0.935818
1.53812
0.213907
0.572851
0.267168
-0.00011188
0.889637
1.21318
1.55585
0.0289972
1.01397
0.112795
-2.65093e-14
0.827524
1.64486
0.67052
0.969231
0.700464
0.832511
1.23141
1.03376
1.22209
0.00807217
-0.022486
1.52245
0.16302
0.543393
1.69455
0.414261
1.11826
1.04691
1.57933
1.18765
1.63206
1.02638
2.88201e-09
0.0713391
0.240091
1.47995
0.783019
1.12212
1.64763
1.04108
0.474168
1.57771
1.40825
1.01389
-4.49219e-10
5.21726e-05
0.961653
0.640094
-1.91983e-11
1.49642e-12
1.59336
1.01879
1.02838
0.842009
0.248237
0.345985
0.00424003
1.00196
0.272135
0.115644
0.720167
-5.00014e-12
0.000367692
0.30873
1.80337
0.0913645
1.62771
1.65952
0.416636
0.986861
1.49923
1.17884
1.02608
1.61494
3.36995e-08
-6.10494e-05
0.814116
1.27311
0.00626646
0.0537859
0.843792
1.58395
1.67353
-2.20033e-06
2.09239e-10
0.357798
1.56761
0.275565
1.34201
1.47125
-1.12824e-06
2.47996e-10
6.91712e-07
1.63266
1.07325
0.0923159
0.000286551
1.05218
0.0455544
6.09123e-10
0.811721
1.61017
1.59366
0.100514
5.96059e-08
1.42685
1.16198
-3.94113e-11
0.924364
0.0563898
1.75315
0.705168
-9.49945e-09
0.573836
0.967485
1.65308
0.0389337
7.23634e-14
1.43276
0.197419
1.65528
-0.120086
0.822922
-9.01253e-10
1.09328
0.0120466
0.0424496
0.457115
-4.44174e-11
0.00126142
1.3387
1.45891
1.5539
0.000888525
1.54687
0.0016476
0.875227
6.56224e-14
0.981819
1.66756
9.60851e-12
-1.69679e-08
1.94712
0.39768
1.15563
-0.00261664
-1.35707e-07
0.915022
0.703036
0.940457
5.76723e-10
1.51497
-1.19538e-06
1.40884
5.50101e-09
0.107954
0.0856548
1.27657
0.877663
1.49544
2.05275e-05
1.30939
0.974086
1.2351e-05
1.51653
-4.23076e-09
1.55633
1.48608
1.5543
1.37527
0.000807459
1.54551
1.20313
1.35509
1.5102
1.00933
-5.16397e-10
0.513433
0.96248
1.19898
-7.87868e-06
1.5158
1.12715
1.37464
1.35863
2.41372e-05
1.23015e-07
0.597461
0.0561213
0.000106824
0.927784
1.00432
1.71953
5.1292e-13
0.1876
0.415387
1.3208e-08
0.926949
1.32522
0.779343
5.62051e-05
-1.51981e-05
1.41275
1.79629
0.5232
1.1087
0.995371
1.42465
1.07879
1.52989
0.000253685
0.332231
1.20796
-8.28911e-11
1.53563
0.20737
0.751788
0.170606
0.00911603
4.59403e-06
3.46217e-07
1.0451
2.01588e-05
1.41049
0.130892
0.0324312
-0.134515
1.01656
0.655203
1.71212
1.00809
0.447383
0.168618
1.15441
1.41172
0.133521
1.14058
6.4194e-10
0.99063
1.47056
5.32335e-08
0.00241061
0.00020296
1.72596
2.21513
0.867523
1.45056
1.63746e-12
0.918954
-3.85895e-08
0.213314
-7.45931e-09
1.00914
0.225025
1.80928
0.441783
0.0123808
0.399295
0.0398167
0.839151
0.266307
0.115031
1.33649
0.273004
-6.06944e-11
0.0271771
1.35
0.911485
0.934717
0.872658
0.0107159
-1.19564e-08
0.674711
0.954612
1.67484
-1.80831e-08
0.314692
1.61444
0.775368
1.07487
0.055006
1.14846
1.2102
-0.00589689
1.07231
1.40682
0.189578
1.16184
1.30035
-3.65042e-05
1.21043
1.08275
-3.78111e-08
0.444901
1.12115
-0.0343559
1.49625
0.0250535
1.83088
0.698452
-0.13409
-5.00908e-09
0.42096
0.453428
0.00414961
0.0940213
2.29909e-09
0.540262
0.268231
0.912157
1.52079
6.64425e-09
0.000147412
0.96056
-6.685e-05
0.15592
1.55568
0.0594666
0.230573
-7.17169e-05
1.22892e-08
0.952939
0.00797245
1.50561e-08
1.2857
1.55945
1.90225
0.057896
0.552416
1.40895
1.19509
-1.17734e-06
0.302123
1.39123
-4.55112e-06
1.03854
-0.166337
1.27598
1.84362
1.66727
-1.36953e-09
0.470067
1.0295
1.39524e-07
1.31314
2.58777e-13
3.7719e-08
1.04169
1.55647
0.101526
-1.44593e-06
1.45533
-5.23877e-05
0.507909
-1.86891e-08
0.0157909
-2.69321e-11
1.56004
0.0552372
0.959679
0.278439
-5.02589e-09
1.23987e-14
0.000593971
0.0141776
-1.97578e-08
0.000183106
0.132371
1.18272
0.400151
0.475387
0.130329
0.772079
0.00155805
0.835985
1.67766e-12
1.2929
-3.24048e-06
0.910145
0.750691
0.970656
-1.67337e-12
1.64757
-2.00324e-06
3.59611e-13
-2.05962e-12
-4.57251e-07
4.40829e-14
1.18659
1.82014
1.10593
-0.000812197
1.47402
0.268954
-7.52124e-15
1.55177
1.21833
2.88715e-11
1.65175
0.0287613
1.40013
-0.000709883
-0.00171013
0.366759
0.813914
3.48122e-07
1.47941
1.53625
0.607311
1.45995
3.44965e-09
0.640636
0.549544
1.2121
0.717553
0.017995
5.28224e-13
1.07336
1.49867
1.41061
0.956214
1.18533
1.07243
1.50627
2.06619e-06
0.0906645
0.319133
0.00194825
0.42414
1.39422
1.57298
3.87502e-06
0.0964691
1.39743
0.570969
0.0103895
0.915878
9.85881e-12
-4.58244e-09
1.05428
-1.2231e-08
-1.38071e-05
-2.01775e-05
1.80794
1.81978
-3.19801e-10
1.50869
0.00782935
0.900291
5.85432e-05
1.94139
1.02585
3.1566e-06
0.939451
1.13535
1.16166
0.0137247
0.242072
0.397353
-1.84301e-06
0.476341
1.68971
0.225743
0.939036
0.691082
1.41496
1.47815
1.34264
1.38272
0.0516546
0.513951
1.2769
0.873412
1.46098
0.0615864
1.04065
1.58209
0.0962644
1.1298
1.29132e-12
0.107996
-1.4379e-09
1.18512e-07
1.72081
0.793627
2.36011e-06
0.181718
2.97173e-08
0.338077
0.971335
0.719312
0.145423
1.43281e-14
5.15927e-10
1.42814
1.24047
-8.84364e-10
1.05941
1.04919
1.2205e-05
0.727436
-0.0705317
0.0237785
1.70295
1.54941
1.13011
3.41244e-07
0.120155
1.73418
1.25316
-1.75709e-07
0.378756
4.79987e-07
0.695944
0.164949
0.910615
6.88858e-05
-6.1663e-06
1.42799
0.116411
3.20524e-09
1.49049
1.11993
1.65705
3.64025e-06
-6.3264e-14
1.86326
0.587123
0.0130609
0.305564
0.331778
1.4321
-0.0107586
-1.71639e-08
0.0038121
0.0488349
0.204833
0.725947
1.57765
-2.13493e-10
1.46537
-7.24653e-12
0.961274
0.000410854
-5.98333e-05
1.48156
0.0136675
1.59156
-7.57889e-15
0.998113
0.81616
0.0274345
-0.000143074
0.044906
1.49238
0.461226
0.196064
0.396531
1.13626
-6.6963e-11
0.109187
1.83482e-07
0.46148
1.57267e-11
0.138994
7.05529e-09
0.000213044
0.639064
1.76255
1.28319
0.0875163
1.1778
-4.58598e-11
6.27281e-08
1.54791
1.55319
0.00651312
5.25746e-05
-0.0887934
-3.63787e-11
1.20206
0.011045
0.460194
-1.78714e-08
-9.81564e-15
0.582424
0.951384
-9.72135e-11
0.0197626
0.00266809
1.39773
1.03955
0.724675
-1.53325e-12
0.654375
-3.09488e-13
0.817401
0.704282
1.09577
0.577135
0.164936
0.124119
-9.66024e-10
0.159773
1.52912
1.43251
0.0435166
1.42226e-08
-0.0080345
1.04165e-13
0.908611
1.53895
0.875378
0.479256
0.18114
-1.87686e-08
0.0845993
1.36646
0.135566
1.02298
3.8845e-12
1.31504
-3.95802e-11
1.01833
1.35192
0.348978
1.05913e-06
1.83721e-07
8.02696e-07
1.35864
1.00733
0.848413
0.223815
-1.60653e-05
1.2443
1.00104
0.981933
0.0622375
-8.0231e-08
2.28894e-13
0.993176
0.00185982
1.37602
0.0130741
0.076919
1.16421
0.0119067
0.000766309
0.974342
3.28965e-12
0.294228
0.92396
1.01746
1.06576
0.000399904
-3.76526e-06
1.37208
-4.10939e-10
-2.01231e-08
0.0446968
3.71599e-12
1.10004
1.58331
-1.65991e-05
0.208656
0.000106049
0.06931
0.36506
0.0459604
0.000925924
-3.13887e-09
0.154005
1.14548
4.91754e-05
0.00639777
0.505951
1.03301
1.62758
0.718692
1.03196
0.00442932
-2.10777e-07
0.0641751
1.58675
1.46858
-5.15135e-09
0.445736
1.09572
2.22232e-11
0.967087
6.66227e-06
1.27359e-05
1.14855
0.988473
1.79855
0.996409
-2.11366e-05
0.355644
0.992034
1.48978
1.18238
0.504103
0.684206
1.50329
1.00109
-2.32674e-09
0.747483
0.426039
-2.68434e-06
0.265367
0.232745
-3.09219e-05
0.999072
1.00624
0.101453
7.4695e-11
0.623993
0.159672
0.442211
0.049254
0.56661
0.331776
0.0217226
-1.47719e-05
1.64135
2.90029e-13
-0.00153652
-4.23059e-09
1.46413
1.48634
1.47486
1.46612
-9.72957e-08
1.43506
1.40421e-09
-3.30939e-11
1.26353
0.326964
0.0414889
0.278818
1.53851
1.45959
0.7894
0.845394
1.74003
0.00243826
1.64687
-4.03682e-08
0.888118
1.44882
1.28897
0.00317485
2.82567e-10
0.715319
7.92089e-09
1.50912
6.11779e-13
0.975634
0.655606
0.0140405
9.39209e-10
0.523716
1.34227
0.140011
0.0130101
0.912831
-2.5046e-08
1.03738
1.38272
1.01317
1.49086
1.29866
1.01293
-1.58342e-08
0.0122669
1.42065
-2.62445e-10
1.60798
1.45376
0.055488
4.74434e-11
1.64051
1.50452
0.994545
1.39086
0.997174
1.73833
1.48768
4.311e-07
2.09805e-08
1.39591
1.01731
0.149365
1.29259
-3.81041e-05
1.0562e-10
3.93745e-11
9.89608e-05
1.5107
1.29475
0.00106932
0.0318634
-5.16477e-11
0.664981
0.0374571
8.07162e-10
1.45735
0.365125
0.209917
1.2298
0.442128
1.13097
2.03253
1.51497
0.994995
0.235121
-1.67028e-05
1.19864
1.77365
-1.93551e-13
0.335193
0.432574
1.49413
1.02852
0.00920867
7.4753e-12
-0.00279391
1.70786
1.04898
-0.0396814
1.35289
1.82565
1.60463
0.957235
1.46477
0.12221
1.09914e-11
1.0487
1.53484
0.16437
1.71123
1.10611
-3.23961e-06
1.6159
0.0066157
0.00769275
0.134854
1.00836
-0.01414
1.23441
-1.08724e-06
1.60058
-0.0248058
4.26531e-05
0.777754
1.16249
1.51177
1.48179
0.751572
1.94821
0.234006
3.23282e-12
0.0147872
1.49766
0.652028
0.961215
0.451235
2.92731e-07
7.2045e-13
-1.85546e-05
0.242461
0.595574
0.0240185
5.54858e-07
1.11035
0.033442
1.33603
0.000115391
0.403668
0.998576
0.129106
1.57302
1.95474
5.73019e-09
-3.18837e-14
0.00149747
0.45992
0.910903
0.138964
0.724254
1.64225
1.56215
0.616061
1.62216
1.48723
1.61257
-1.80778e-06
0.0291466
1.37235
-0.00365646
9.62992e-08
1.00356
0.541562
0.271999
1.70096
0.269407
1.52963
-0.00404884
1.74449
1.58948
1.65666
1.47094
2.10587e-12
-0.149473
1.57899
-4.71539e-12
-0.00923411
0.00391151
1.14237
0.379902
0.00377759
0.511176
0.268068
0.0180107
-1.3088e-14
1.05376
0.429537
1.66698
1.47998
1.46538
0.363975
1.79399
0.127409
0.000222057
-1.58436e-06
5.97539e-15
0.0516528
0.243214
0.457985
0.186728
-1.8658e-14
0.99434
-2.27351e-15
0.921343
2.54676e-12
0.387093
0.84972
1.51961
3.94479e-08
-1.17904e-10
0.115238
0.929719
1.01611
1.67798
0.917453
1.49358
-6.09715e-09
-0.0209204
0.694237
0.981667
1.63722
0.000418776
0.954219
0.460782
0.0807811
1.2518
-1.46483e-09
1.05295
1.49598
1.69713
0.971242
1.09232
1.5801
0.000538271
1.06723
0.923554
1.5079
-1.19877e-07
1.51872
-1.6005e-09
0.392586
0.500275
9.78565e-06
1.04166
0.0176871
0.620921
1.27247
0.997691
-0.00969907
0.0353142
0.303982
0.250422
-1.98656e-10
0.995165
1.40838
-1.44688e-06
1.03038e-10
2.18026e-09
1.32488
0.978476
0.466883
1.47381
1.0604
1.30753
0.000404499
-4.67477e-14
1.55983
1.55534
0.993072
0.231356
1.10289
1.63973
0.162822
0.631174
0.207486
1.08022e-06
0.308915
1.36073
0.802997
0.103026
1.68011
0.0492447
-0.215185
-1.65717e-10
0.9955
1.30934
0.258881
0.000225733
0.934371
1.16865
0.385569
0.0368827
-1.04894e-09
1.21406
1.52587
5.73603e-08
0.209977
4.39316e-14
-1.05791e-06
0.0433442
1.39013
0.826876
1.54446
1.58936
2.26076e-12
0.52999
0.969729
1.86801e-07
0.932077
0.0178301
0.318659
1.45207
1.51006
0.69764
0.131462
1.558
1.45244
4.62846e-06
0.530879
1.66638e-08
0.854479
1.00627
0.311456
0.342194
0.01881
1.08113
1.41211
1.43667
0.913921
1.39907
1.56612
1.01526
1.64426
-1.80699e-06
1.36914
0.115376
-1.98994e-07
0.526166
0.751148
0.403642
1.684
0.763516
1.44259
0.951213
0.0801767
-1.62049e-07
0.626209
1.42007
2.78396e-07
2.06546e-12
0.486474
1.04386
0.174899
0.00496084
0.887229
1.10836
0.39343
0.0267686
1.38045
0.184945
0.134723
0.991319
0.488478
1.60778
0.74567
1.50176
0.93183
0.144351
0.0153124
0.279521
-1.93838e-10
1.44692
0.0151364
4.77143e-09
0.438435
1.14467
1.29867
1.3099e-06
0.981824
1.42868
1.57621
0.0421264
7.67006e-09
0.0226178
2.99356e-11
0.229609
-0.0314936
1.45455
1.19254
0.0515867
0.558072
0.0476536
1.63621
-1.24584e-09
0.00255629
0.0554796
0.02981
0.00769943
0.956968
-9.72194e-12
1.62646
0.894221
-1.10971e-15
0.0488437
0.96506
1.63159
0.270036
-8.3396e-06
1.06644
0.400767
3.30293e-11
0.920948
-2.69134e-09
0.00634562
-2.76398e-11
1.35462
3.60557e-06
0.985831
0.568332
1.601
0.59251
1.20272
1.23733
4.65289e-09
-0.00498415
0.124677
0.0234734
0.83683
1.10779
0.0131013
-1.90232e-10
0.106185
1.30388
0.925872
-4.01448e-09
0.19888
0.968111
0.674537
0.150017
0.919255
0.00520801
0.353081
7.11843e-06
1.95704
3.69084e-11
0.416753
0.962752
1.64009
1.52856
1.34156
1.06823e-11
1.45105
2.96944e-08
0.000477062
1.52026
0.326683
-2.29943e-09
0.192173
1.11184
0.145002
0.355832
1.44747
0.00470536
0.203361
1.44083
0.24689
1.44968e-05
6.09861e-12
-1.99353e-07
0.723592
1.18366
0.98278
0.849505
1.00314
5.71462e-05
9.79686e-09
0.156767
0.00102793
1.4163
-3.97297e-10
0.256024
0.236804
1.27766
0.386235
-7.26529e-09
0.753249
1.21995
1.24426
-1.16036e-09
0.00294265
0.553852
1.63672
1.88652e-10
1.51888
1.33364
6.61939e-10
-1.50206e-05
-2.16743e-07
0.753204
0.0670977
0.104438
0.892129
1.57568
1.23499
0.226058
0.701256
0.551692
0.609757
0.834328
0.00177684
1.41026
1.37289
0.857721
1.02338
1.47206
1.21735
0.586546
0.0679436
-0.0100989
1.59753
3.02852e-06
0.0363261
1.08801
1.04318
-1.80255e-05
0.165498
0.56366
-0.0118446
1.03785
0.858056
-9.49844e-10
1.27389
1.3039
-6.98373e-08
1.33718
-7.51065e-13
1.27693
0.0089781
1.65716
-3.85278e-13
0.483277
1.24432
0.26149
0.174814
1.45828e-08
0.147145
1.64471
0.585731
1.52847
-1.18092e-09
3.28305e-05
1.37931
-2.3204e-08
1.48764
0.837037
-6.7326e-07
2.21777e-12
1.91709
1.48465
0.95875
0.446791
4.28536e-09
7.76673e-10
-8.87808e-06
-1.02041e-13
0.0160528
1.09089
1.06994
0.00561778
0.00632402
1.45499
-1.45179e-07
0.255217
-4.37186e-10
0.00343575
1.66242
1.16394e-09
1.45568
0.972861
0.966212
0.389903
-9.40097e-06
-4.65141e-07
0.0515319
4.23625e-10
0.0187029
1.1435
0.314646
0.479105
0.364063
1.58291
0.035921
0.0492606
1.07968
0.224829
0.0896272
1.52778
-1.73923e-14
0.0143899
0.965275
1.47442
0.737582
-4.40609e-08
1.02455
0.325801
3.4396e-07
1.02729
3.71233e-08
0.322342
1.00283
-1.23006e-09
8.94793e-11
1.44634
0.160217
0.669283
7.743e-09
0.805472
1.12558
0.450902
0.00010021
6.27993e-06
0.219473
0.755147
0.217584
7.85815e-16
0.339089
0.265039
0.986179
1.00531
-3.62658e-14
0.2076
0.971444
-1.19382e-07
0.245168
-4.25199e-11
1.2836
-2.00338e-14
6.81091e-13
-8.09617e-15
-0.0566695
1.32548
1.37725
0.135067
-3.81891e-14
-9.52733e-11
-3.12731e-13
0.173933
-8.49857e-08
1.30622
1.775
0.993023
1.40226e-05
8.0299e-06
0.0252879
0.911177
1.52196
0.857772
1.33507
1.14879
6.30474e-10
0.988038
0.328784
5.3865e-11
-7.36974e-06
0.0338293
2.37276
1.7576
1.04128e-05
0.574122
1.39373
1.9237
1.53947
0.7054
1.46223e-08
0.638065
-1.46805e-07
1.36131
-1.26643e-07
8.77299e-14
3.49332e-07
0.0219105
0.993733
-2.93414e-09
0.998567
9.6213e-12
1.31919
0.563282
1.14904
8.87096e-05
0.909777
1.07304
2.43696e-07
1.12394
1.01638
0.000442743
0.554886
-2.79425e-08
1.39942
1.42858
0.42706
0.269579
0.24321
1.61241
2.5069e-05
0.93894
1.1218e-10
-8.18028e-14
0.991893
0.967556
3.2725
0.728006
1.2029
0.0222363
0.716796
0.874329
2.93631e-07
-1.15528e-05
0.268157
0.000620905
1.36858e-09
1.66179
1.07095
1.54068
1.69667
1.60847
0.939127
0.381017
0.18809
1.64866
0.804226
0.18868
0.863532
0.0722124
0.028375
0.423598
1.16987
0.291905
1.11064
1.53162e-08
5.03822e-07
0.155464
1.13093
1.16172
2.14608
1.02051
-5.43346e-06
0.359338
1.0143
0.144156
1.43628
1.5542
1.5846
1.35027
8.46688e-08
0.216857
2.02424e-06
0.978557
1.07897
0.995271
-2.42629e-10
0.990708
1.53981
6.20747e-12
3.89391e-12
0.00506508
-3.50402e-05
6.90935e-05
0.150587
0.0598545
1.42644
0.457462
7.50841e-08
1.5421
1.44848
1.37603
1.16131
1.36208
3.90249e-10
1.19142e-06
1.00437
0.0434939
1.88648
1.70882
0.841634
-9.76955e-06
1.1385
0.170602
0.248052
1.07646
0.000835723
0.464464
1.02802
-8.20943e-07
1.83798e-07
1.03798
0.00310427
0.727207
1.48521
1.02757
0.17426
0.892858
0.666383
1.17524
1.50091
0.0199881
-4.88489e-10
1.02633
0.000261379
0.819446
0.871003
0.156101
1.0122
1.50574
0.000193618
1.31557
0.261627
0.365556
-6.34922e-06
0.0415611
0.0228373
1.08812
-3.17703e-06
2.36456
1.50391
0.864242
5.15819e-13
0.995084
0.020925
0.942009
0.239028
1.7214
1.55044
1.0131e-13
0.0738839
0.434363
1.52532
-4.34578e-08
1.7195
0.915171
1.79914e-10
1.14878
-2.64916e-12
0.0275528
1.10512
0.61283
1.13511
1.04824
-1.69167e-09
0.0335842
0.526747
0.0175166
0.00565142
1.5144
1.32146
0.705275
2.65738e-08
1.43891
1.82331
1.62734e-10
-4.07517e-12
2.0574
0.0111922
-7.11788e-16
0.447806
0.0383786
1.00733
0.238914
1.23629e-09
1.00383
1.02115
1.65648
9.0801e-11
1.76704
1.66213
1.48112e-06
-3.46494e-05
1.32193
0.108331
1.43328e-05
1.77974
2.14779e-09
1.42806
0.673599
0.00386913
1.33927
0.813077
1.28655
0.664834
0.235274
0.0638183
1.15006
0.976377
0.0800451
0.0176411
0.00451649
1.9622
9.31068e-10
1.44339
-4.64022e-07
0.530363
4.58883e-08
1.78082
0.8928
1.63139
1.30537
0.112571
1.02262
0.886365
0.000396325
-0.000107927
0.481104
0.000883169
0.330793
0.0981163
0.451776
-3.81975e-12
2.77066e-09
0.127185
0.0345997
-1.10101e-13
1.35246e-09
0.450954
-0.0104767
0.74866
3.2858e-09
1.67459
0.98598
1.48804
0.662192
1.49958
1.47223
1.47957
-2.21047e-10
1.33718e-05
0.06687
0.930059
0.40177
0.570754
6.28969e-07
0.986673
4.83361e-08
0.000117046
1.99029e-12
0.0703346
1.03947
2.062
1.36598
0.464205
5.73979e-12
0.255988
1.19981
1.54296
0.278298
1.47338
0.987768
0.390737
1.76723
1.47443
1.06863
1.1267
0.669798
1.01256
0.881653
1.6644
1.594
0.793361
0.068415
4.14069e-08
1.06227
1.02941
-2.83951e-06
1.61944
1.5918
0.934458
1.02074
5.17975e-07
2.03096e-11
1.36405
0.591661
0.715655
0.873598
1.55103
1.50947
0.162676
0.961073
6.31194e-05
0.772219
0.782586
7.9245e-11
1.62851
0.400053
1.28
1.5813
0.201098
0.0980865
0.00775143
1.55129
0.904524
0.671959
0.947002
-1.02172e-12
-1.68214e-06
1.25596
0.000115492
0.233203
1.20851
1.26734
3.98697e-10
-2.17507e-06
-0.0344316
0.972054
0.0351607
-0.0141658
1.47043
0.0419456
0.478148
0.00309483
0.50524
0.735195
0.569874
-5.02534e-08
1.0805
1.40427
1.39246
0.00443317
7.3082e-05
0.517521
0.545275
0.0730433
-5.73839e-07
-4.28883e-11
0.113643
0.350079
1.40149
2.66607e-07
3.21548e-12
1.47103e-05
0.218418
1.004
0.581722
0.0496995
2.93852e-09
-1.40549e-07
0.389791
0.30567
1.61781
0.220844
1.50388
0.199347
0.355763
6.27256e-05
0.129731
1.22321e-09
0.243156
0.000310836
0.495108
1.62689
0.918153
1.8485e-05
-1.94479e-08
0.969655
0.000447828
0.413426
1.01406
-1.96509e-07
0.976594
0.740185
0.0425494
1.44037
0.199342
7.99789e-06
0.790266
-8.64665e-06
6.55893e-05
0.725884
9.15616e-06
0.993112
2.66167e-08
1.07868
-0.000102738
1.48747
0.112278
0.221581
1.73168e-09
0.699762
3.91917e-06
1.02734
1.30667
0.0080879
4.03944e-05
0.486276
7.79518e-06
1.37184
1.13055
1.60744
0.799776
0.995356
1.52156
-6.70979e-07
1.69406
0.117319
2.02819
0.668984
4.77778e-06
-1.88779e-06
1.71238
1.58779e-11
1.57068e-09
0.541374
2.75217e-05
0.0694604
1.33752
1.5543
1.69905
-4.48943e-11
-1.33742e-05
0.0656272
0.986471
-1.31458e-07
3.22051e-08
1.59049
1.24311
0.441967
0.0321685
1.14179
-2.05772e-10
-7.91447e-12
0.00281292
1.46021
1.82357e-10
0.943638
1.58736
0.146924
0.0267397
1.53103
1.43307
0.854749
0.38217
-3.27522e-06
7.64166e-08
0.250048
0.00801728
-1.14188e-06
1.25728
-1.87734e-05
1.24953
1.68623
0.0145761
1.09071
1.64733
4.82163e-14
0.00355808
1.26371
-2.75867e-05
1.4069
0.276724
0.00143394
0.000297769
0.42289
3.52252e-13
1.6763
1.52195
1.01521e-05
0.139128
1.56286
1.56586
1.00357
0.428431
0.337992
0.0287206
0.071924
-0.000909411
1.45486
2.97397e-10
0.0543495
0.917123
0.0441421
0.231747
2.12869
1.2947
0.157227
4.21429e-09
0.842439
-5.8653e-08
-2.04374e-12
-1.44098e-06
0.103798
0.0517478
1.1709e-12
-2.41728e-13
8.10477e-05
0.13389
1.04063e-05
0.00346747
1.49215
1.03374
-1.5725e-14
0.7905
1.76637
-4.73703e-15
0.013213
0.0208252
0.266301
1.22985
0.540358
1.52048
3.08669
0.163083
1.03637
0.00564986
0.988237
0.00336967
0.551784
0.0076798
2.40525e-06
0.931184
0.0567899
0.152236
1.46726
0.439867
1.05961
0.910924
1.04138
1.02027
1.20802
0.0228846
0.514555
0.883921
3.79758e-12
0.2197
-1.81886e-10
0.0148725
1.39495
0.111905
0.966706
7.72923e-10
0.00013487
1.79318e-05
2.19874e-09
-6.19676e-05
2.17285e-06
1.70251
0.548681
-0.0759139
0.907947
0.717224
-4.80014e-06
0.198264
0.111582
1.37089
1.42485
1.62939
0.290092
1.16182
0.591777
1.04058
1.57303
1.51877
1.78137
0.211048
1.40779
1.31262
-3.84051e-13
1.3979
0.973936
4.67879e-09
0.00731106
1.00817
0.254066
0.0428989
1.99375e-07
0.967455
2.15263e-10
-7.61501e-07
-1.08779e-11
0.528245
0.940436
2.36209e-07
0.949643
0.0101095
1.60503
0.926292
0.354862
1.5543
1.57284
0.944172
1.24669
6.1205e-10
0.0812295
0.0564425
0.212168
1.04966
-1.05716e-10
0.402544
-0.000105179
0.436851
1.02943
0.201427
0.507354
-1.0472e-06
-4.239e-13
0.571899
0.446062
-2.22737e-09
0.00528181
0.224246
1.37006
1.50677
2.64913e-13
0.953153
1.55303
0.000139889
0.00551047
1.28692
0.109022
0.0446189
6.45896e-09
-4.21654e-13
2.96537e-08
-2.09921e-09
-6.81104e-08
0.829437
5.8879e-05
1.58589e-06
1.45318
-2.57474e-11
-2.66439e-09
1.02987
0.25829
1.04315e-12
0.826752
0.91512
-7.27501e-11
-4.26497e-08
0.332328
1.43139
1.87142
0.0027678
1.99412e-09
0.824918
0.2331
0.908775
0.00333974
1.19388
-1.64181e-06
-1.93236e-08
2.49214e-10
1.19301e-10
-8.88889e-08
0.0486089
0.853981
-4.3548e-11
0.0516552
1.36333
3.49334e-11
1.20486
4.35909e-06
-4.28779e-10
0.0253304
-8.86514e-09
0.884014
5.51847e-06
1.46389
-8.52864e-09
3.17922e-05
7.74923e-08
1.1435e-13
3.50579e-14
-5.01102e-07
1.68358
1.32385e-09
0.0184149
0.0480246
3.70068e-10
0.000591721
0.976095
-1.6826e-12
4.40656e-05
1.62155
1.44879
0.792279
0.390142
0.0509156
0.287221
0.00860174
2.47966e-12
1.73858
0.968121
0.719264
8.20332e-06
0.740249
1.07463
1.43645
1.0177
0.903842
2.51283e-10
0.521334
-1.63392e-08
0.195423
0.947629
0.00391657
1.70711
-2.21496e-10
-0.000287753
0.00683815
1.44986e-15
0.979419
1.89407e-11
1.35325
-0.0800274
1.7871
1.41142
-2.9591e-10
1.9932
1.48988
0.960698
-5.3496e-12
0.85031
1.05352
1.57326
0.884171
1.27982
1.5917
1.69273
1.73096
1.1847
1.48924
-1.93811e-10
0.622652
1.01972
0.986628
0.171583
0.643881
4.78381e-08
9.4837e-07
8.92689e-12
1.02529
1.19222e-12
0.679827
1.45374
0.000233851
1.71182e-05
0.200367
0.29764
-0.095467
1.39522
0.857145
9.13308e-10
0.959206
1.13983
-0.000381901
1.53815e-05
0.840256
1.21459
1.16438
-0.0132309
-2.15462e-09
1.04469
1.02327
1.80227
0.991435
0.913412
1.36561
2.25798e-06
0.942741
0.770159
0.155176
0.00516456
0.972659
1.33001
-7.22002e-12
-3.40289e-06
0.000279258
0.768239
1.22602
-1.37721e-08
1.48148
1.69042
0.136674
1.03326
0.201157
0.685402
1.00254
-1.10983e-05
-3.7684e-11
1.50519
3.15786e-09
1.43732
-1.24094e-08
0.241151
-2.65318e-15
1.44086
0.0179382
-1.89381e-15
1.0184
0.932189
4.8979e-10
0.00685283
1.05007
1.31557
0.914845
1.07172
2.34722e-08
0.862009
0.72679
3.05295e-05
1.54105
0.0484979
1.13208
-1.42308e-14
0.020781
0.996617
0.0681238
0.297181
-0.0222587
0.0971618
-3.14104e-10
-3.61679e-07
0.96341
0.979427
1.36914
1.54104
-1.6297e-09
0.7308
1.39881
-1.2526e-07
0.230755
1.36221e-12
0.714546
4.27134e-06
1.03688
1.3284
0.949109
1.26981
1.54822
0.0628662
-2.24411e-06
0.989034
0.899388
1.00054
7.79879e-11
0.676636
1.06166
1.35764
5.67625e-14
-3.73738e-07
0.136564
0.149104
0.938712
0.431267
-7.24064e-10
0.000177463
1.57028
0.000977482
1.11279
1.03935
0.210592
1.04387
0.0630781
1.48632
0.338432
0.00181789
3.1916e-05
-1.01903e-10
0.868799
0.0403525
0.419496
-0.000229847
-6.62247e-06
1.50123
-8.02308e-14
1.42142
-1.60859e-08
0.0367394
0.15713
1.0841
1.47404
1.5268
1.32032
1.18847
0.799993
0.55846
0.931492
9.647e-07
-0.0867544
1.2684
1.07201
1.61843e-05
1.54513
-2.66892e-14
1.01696
0.889682
2.20186e-07
1.27469
-0.0744644
9.17992e-08
0.0451988
1.52942
1.07691
-0.111368
0.866389
1.51138
1.60107
0.00396436
0.0148053
6.83196e-08
0.00789224
1.0372
1.5604
-1.0275e-12
0.941317
0.908267
-3.58618e-09
0.975774
1.59613
0.204964
0.187343
0.975598
4.68344e-07
0.890894
0.00839607
-0.0927359
0.411926
-3.16957e-07
1.71125
0.246025
1.59591
1.48408
0.02824
1.50756
1.76051
-2.1767e-09
-0.120367
0.922446
0.7964
0.95821
1.47027
0.308739
1.2062e-07
0.958543
1.15193e-14
0.981136
1.67662
0.342639
0.00512058
0.0376533
0.00850754
-1.93031e-11
0.00743756
1.43717
7.69588e-14
0.408311
-9.48424e-11
-9.30539e-09
1.81001
-1.52883e-08
1.55248
0.103856
0.157325
0.199509
0.194983
1.20712
1.04546
0.501905
0.97914
-8.15156e-05
1.11907
6.5917e-11
-0.000239766
-4.70298e-08
0.45956
0.0407196
0.00426116
2.50577e-13
0.00229239
9.04039e-11
1.07968
0.0715392
4.7467e-10
1.0393
3.96568e-11
1.32579
0.272674
1.22409
0.453684
4.05471e-10
0.564375
1.37044
0.00721301
1.4583
0.000145899
4.53069e-05
0.391822
0.0310099
0.29002
1.30491
-4.70932e-06
0.0419026
1.08322
6.5277e-07
-0.000463994
0.401287
1.58167
0.995729
1.30604
0.0100593
1.11664
0.90504
0.821504
1.43305
0.181115
4.60137e-06
0.570822
1.53557
-7.41706e-10
0.753414
0.159959
0.960654
1.41101
0.712552
0.678439
0.59826
1.11903
1.71287
0.781803
1.10925
0.327862
0.0902047
1.67914
0.0129054
1.53067
0.0241195
0.0115281
-1.02509e-07
0.591043
0.257098
1.32596
0.434653
0.0694693
0.00168517
0.00305081
0.759015
0.41727
1.082e-09
0.0456304
2.42919e-10
-0.0386745
0.486427
9.15939e-06
0.815445
0.761023
0.279973
2.80763e-13
1.39817
0.613569
1.60763
1.2175
0.0475393
1.05387
0.689284
1.52596
1.1513
0.931368
0.000141679
0.764216
0.968333
1.52553
0.38728
1.7833
1.60291e-05
0.551039
0.203548
1.50823
1.48571e-11
0.0783161
0.668341
0.41007
1.45761
0.143353
1.37288
1.14515
1.51946
1.20935
1.46022
1.30338
1.56084
1.64499
1.20442
1.11394
0.372874
1.43561
0.760061
0.0180534
1.48501
0.0311496
0.975284
-4.96921e-10
0.0665688
9.2121e-07
1.39877
0.691795
0.0867163
0.287757
0.975705
0.309393
1.84089
1.80749
0.084191
2.58354
-4.95102e-08
-4.05443e-09
1.36541
0.381021
0.00363861
0.270766
0.987711
1.58753e-07
0.638848
0.422023
3.97162e-08
5.56029e-13
1.10229
0.560863
1.04283
0.311209
1.40072
0.901588
0.941886
0.603766
0.881885
-1.91057e-11
1.41314
0.595871
0.709325
0.0593358
0.631882
0.118503
1.13706
0.0164746
1.25907e-16
0.0353004
0.962816
8.45942e-12
-1.20713e-09
1.18942
1.08911
0.783356
9.17319e-05
0.671634
0.919836
-3.73768e-07
0.718897
0.118808
-1.35828e-10
8.37808e-09
1.20571
0.00830949
-0.0114721
0.786282
0.804372
0.937236
1.18335
1.00765e-10
-5.20469e-10
-6.27323e-06
0.272063
1.01035
0.0306038
0.00139022
1.03585
-1.02648e-05
1.35084e-05
0.124567
0.0195125
-0.00123073
0.784679
-0.014146
0.682265
1.56495
0.004906
0.569347
0.923138
3.03624e-07
0.607048
0.27013
0.920493
0.141964
0.000448078
0.847078
-5.57034e-05
1.66327
1.54372
0.0266995
1.66617
0.00162908
1.55847
0.650158
0.584376
1.05573
0.231511
0.443989
0.82267
1.40134
1.92154e-07
7.6039e-11
0.0515619
-1.60786e-13
0.063301
1.03975e-10
1.14529
0.50899
1.47054
8.37738e-06
1.09834
3.82191e-09
1.78882e-05
-7.19209e-07
0.000207354
0.00019264
1.17163
0.179104
-4.23546e-08
2.03256
-4.33035e-07
0.000130936
0.0751118
0.823854
1.34039e-05
1.38296
1.44246
0.921673
-7.39354e-12
0.962275
1.54572
-2.35987e-08
0.115512
0.115903
1.27518
1.46404
0.0269576
0.00198708
0.000415149
0.961304
0.537057
1.04344
1.56401
0.969984
1.0325
0.0509603
1.20758
1.1597
0.35764
0.00193239
0.0503652
0.426407
2.79941e-05
1.47956
0.263834
1.0525
0.769485
0.159377
2.12612
0.87338
0.00100282
1.01809
0.0215512