/*--------------------------------*- C++ -*----------------------------------*\
| =========                 |                                                 |
| \\      /  F ield         | OpenFOAM: The Open Source CFD Toolbox           |
|  \\    /   O peration     | Version:  4.1                                   |
|   \\  /    A nd           | Web:      www.OpenFOAM.org                      |
|    \\/     M anipulation  |                                                 |
\*---------------------------------------------------------------------------*/
FoamFile
{
    version     2.0;
    format      ascii;
    class       volVectorField;
    location    "11";
    object      U;
}
// * * * * * * * * * * * * * * * * * * * * * * * * * * * * * * * * * * * * * //

dimensions      [0 1 -1 0 0 0 0];

internalField   nonuniform List<vector> 
26625
(
(0.90042 4.51346 0.0119896)
(-9.21177 7.03213 -0.12973)
(-2.21922 8.98107 -0.0447966)
(4.26045 8.93039 0.0391176)
(-0.903226 4.87433 0.0225536)
(2.11227 6.3961 -0.000242608)
(-1.36128 -0.38886 0.000329874)
(0.338297 3.77434 -0.0252329)
(-1.41151 1.00603 -0.0444859)
(13.1627 20.2255 0.149316)
(1.75576 0.912136 0.00534852)
(2.03225 5.31306 -0.104443)
(-1.63638 5.00645 -0.00140861)
(6.77998 11.0863 -0.00150154)
(1.19317 9.99696 0.0392811)
(2.50963 3.8539 0.00615874)
(6.91471 10.7662 -0.139298)
(8.01941 9.63913 0.00395823)
(-1.02788 7.98431 -0.0162302)
(-6.02459 4.89634 -0.000409187)
(3.43599 5.13542 -0.0154922)
(1.73343 7.50459 0.010877)
(-1.11343 3.90433 -0.009714)
(-2.14181 6.4136 -0.217096)
(0.062574 5.03996 -0.00114401)
(4.09535 4.28045 0.0257712)
(2.96721 -1.4866 -0.0313859)
(2.26576 4.90101 0.00317707)
(1.92041 4.24716 -0.00852793)
(3.96709 9.47978 0.0510811)
(-2.91241 4.26309 -0.0675272)
(-3.5446 7.5638 -0.00051475)
(6.39817 3.02215 -0.00353531)
(-0.0868769 4.03199 -0.00379193)
(0.317647 2.29005 -0.00391949)
(1.80713 1.51092 -0.00190152)
(-3.88297 0.43383 -0.0515375)
(1.15296 9.2213 -0.00266221)
(-2.87071 -0.0678006 -0.0187047)
(2.59891 6.50081 0.0161914)
(0.320402 5.11071 -0.0288894)
(2.61042 9.84274 0.00873868)
(-0.347122 10.1598 0.00901234)
(-0.776753 9.77842 0.0265921)
(0.469306 6.20621 -0.00498897)
(4.42202 15.2097 0.00452126)
(1.3525 9.22449 0.0216506)
(0.96133 6.36295 -0.0496068)
(8.31351 12.2646 0.0294665)
(-0.990429 1.07568 -9.81759e-05)
(9.26932 19.4938 0.0260022)
(1.01456 4.39544 -0.00276115)
(-4.31703 1.60776 0.0151586)
(-1.32948 3.53385 0.0139719)
(0.982786 3.95666 -0.00284215)
(7.85676 10.6467 0.0161496)
(2.19516 17.0779 0.0451949)
(1.94112 12.6405 0.149316)
(7.83352 13.2756 -0.00723183)
(-3.09805 8.67395 0.0498243)
(-0.259068 3.89239 -0.0080244)
(1.03232 3.38558 -0.00706604)
(-2.49543 4.03348 0.00330583)
(-5.34132 0.572557 -0.0299494)
(2.04426 0.16952 -0.0152684)
(-0.523286 2.77345 0.00828625)
(3.01598 -11.1613 -0.141675)
(6.76141 9.20431 0.00799096)
(-1.6031 -8.16912 -0.0324849)
(3.70155 8.80225 -0.0171686)
(-2.57642 8.99149 -0.0188362)
(-1.93192 3.29937 0.00147167)
(-2.4885 5.07865 -0.0146475)
(-1.61801 3.56833 2.58909e-05)
(-1.14897 3.3242 -0.00478196)
(0.614928 9.06707 -0.0512336)
(-1.01793 4.50326 0.0216158)
(-1.38307 4.93173 0.0108449)
(-0.546593 3.4677 0.00265391)
(3.36003 6.95135 0.0324146)
(0.980511 4.7283 -0.0290103)
(-1.19469 1.19151 0.0867539)
(-5.53982 -2.96788 -0.0227044)
(11.5912 14.6278 0.0568937)
(2.24835 7.43597 0.0264692)
(4.09415 11.632 0.00631318)
(0.554659 0.400069 0.000377853)
(-1.52777 5.63323 0.00121676)
(5.26291 4.83603 -0.00793283)
(-2.35847 6.19084 -0.0376959)
(-0.420338 8.31937 -0.0703806)
(-2.5588 6.49292 0.0020006)
(5.54773 7.67332 0.0541625)
(1.7082 9.34451 0.0341337)
(-3.15503 3.28623 0.0124007)
(0.392637 4.46382 -0.0887567)
(2.3643 3.58573 0.0140916)
(-5.59807 10.7664 -0.0277739)
(1.76732 8.93445 0.038659)
(-2.40038 5.52726 0.0055473)
(0.964953 4.76727 -0.0748427)
(2.08069 6.45031 0.0152223)
(-2.94195 6.28752 -0.0281532)
(6.1914 10.9568 -0.0184323)
(0.185698 4.71653 -0.00382945)
(-0.0195256 4.54119 -0.0159189)
(-2.06531 3.11716 0.00517784)
(-2.32468 10.2097 -0.0400905)
(-2.63123 7.44661 -0.00190423)
(0.719919 3.43055 -0.000937126)
(7.99336 19.7836 0.0302921)
(-0.476798 2.68206 0.0193833)
(1.4087 -2.04923 0.0557938)
(1.51457 8.29323 -0.286329)
(20.5945 23.6713 0.218194)
(-2.03381 8.41383 -0.00396158)
(-0.150284 4.7483 0.00316337)
(-0.0901707 -0.838657 0.00336285)
(3.79519 11.5407 0.011291)
(-2.00638 8.89003 -0.0218458)
(-0.278752 5.67143 -0.0318358)
(7.88448 5.77472 -0.0544538)
(-0.159198 4.72277 0.00348184)
(4.58987 5.23502 0.0292567)
(8.28356 6.95544 -0.0650112)
(4.78687 12.2206 0.00420515)
(-1.19483 5.81453 -0.00260084)
(-3.77251 5.71418 -0.0119485)
(2.80513 7.72157 -0.061388)
(9.89312 10.6602 0.0105755)
(4.79657 15.3454 0.00453787)
(9.81494 18.6665 0.02001)
(-2.19384 9.65015 0.0122307)
(2.60865 3.8976 0.000111606)
(-1.28258 -1.04875 -0.0168801)
(3.91019 11.1347 0.020249)
(-1.78411 7.1177 -0.0123773)
(-2.04342 4.23481 0.000563273)
(7.81491 15.5485 0.0461018)
(0.650976 6.89811 -0.00799407)
(5.73901 9.7024 0.0496489)
(13.9643 13.6351 -0.0985827)
(-4.22045 3.71916 0.00497246)
(-3.14612 7.91502 0.0281298)
(-2.03005 8.56437 -0.0100031)
(5.80902 20.9023 0.0752896)
(-3.00653 4.52044 -0.00947943)
(1.96594 8.66894 -0.0281123)
(1.13519 9.15957 -0.0928799)
(-1.28422 3.7063 0.000534577)
(5.3393 15.2274 0.0410615)
(-2.55651 6.00702 -0.000441365)
(1.61122 -0.383529 -0.040448)
(-8.58185 9.14808 -0.00302445)
(-1.65604 3.93029 -0.00264584)
(8.79631 12.6876 0.0913658)
(3.54677 4.21481 0.00333075)
(7.5144 14.2323 -0.0944523)
(-3.34843 7.68615 0.0066333)
(3.77848 10.1213 0.0408802)
(-1.19945 13.0313 0.127286)
(0.35716 4.47656 0.00264002)
(2.00774 1.67519 0.0225265)
(5.28795 9.34676 0.00515719)
(-0.888531 3.58912 0.0267857)
(0.990455 -2.66818 0.0406119)
(0.637259 8.97799 0.000406654)
(-0.273331 2.88213 -0.00333793)
(-6.72577 6.5763 0.00313672)
(-0.88993 2.52755 0.00578138)
(-3.84889 5.64677 -0.000782475)
(-0.496086 4.34551 0.0167943)
(-3.37155 7.40579 -0.0023117)
(-5.42945 10.7368 -0.0205503)
(-0.204053 4.51283 -0.00210455)
(11.7055 24.0467 -0.0585221)
(-2.09577 2.76142 0.0151931)
(-2.07854 4.66805 0.00941288)
(5.63228 13.2903 0.0491857)
(-1.60932 3.83214 -0.00111591)
(-4.45967 6.626 -0.0427387)
(-0.578201 2.43358 0.0258697)
(-0.729447 2.04215 -0.0169048)
(3.079 19.3501 -0.0227269)
(-4.75353 4.986 -0.00784727)
(5.91464 5.55334 -0.00247435)
(-5.45767 6.33922 0.0446675)
(-3.29548 5.95847 -0.00343207)
(2.98971 10.0029 0.0142857)
(-3.46577 -4.2173 -0.0143722)
(-2.74947 6.05451 -0.00779586)
(-2.76132 5.11754 -0.00442677)
(0.446509 17.8226 -0.0606242)
(11.4182 9.94887 0.00294281)
(1.95758 12.9099 0.0264014)
(2.5635 2.61277 0.000929711)
(3.7751 -3.13462 -0.187976)
(6.0118 7.90483 -0.116735)
(2.43806 9.42951 0.0184552)
(-0.979272 1.83763 -0.0161131)
(7.23059 11.4228 -0.10732)
(2.21499 11.6229 -0.00688154)
(-0.746098 3.03109 0.00398698)
(0.878007 8.36919 0.00908549)
(-3.50086 7.05719 -0.0105549)
(-0.822696 4.59377 -0.0102917)
(14.923 15.7363 0.0102486)
(-2.08888 7.70056 0.00184075)
(3.6456 5.25881 -0.00778175)
(-2.45993 4.87277 -0.00229783)
(-0.885543 3.77774 -0.00307428)
(3.60687 -1.38733 0.00938874)
(-1.47843 0.00927993 -0.0239456)
(-3.02077 7.40219 0.0063187)
(1.5972 0.23273 0.0240328)
(0.0179649 1.79645 -0.00328132)
(-2.55423 -1.65242 0.00644834)
(5.61327 13.4876 -0.038278)
(3.8652 7.95038 -0.00633096)
(-2.14873 5.52431 -0.0764749)
(-1.12818 8.38467 -0.00539257)
(1.0012 1.50601 -0.00108835)
(-0.874044 3.79629 -0.00511849)
(-0.223739 2.96743 0.0191661)
(3.7347 6.21598 0.326311)
(2.3458 8.17953 -0.000821533)
(3.45535 1.48264 -0.00208252)
(1.60159 4.65588 -0.00235509)
(0.767379 6.70194 -0.167822)
(-2.82268 6.96349 0.00342463)
(1.37838 7.81329 0.00647789)
(5.72413 11.7161 0.00822984)
(-0.317512 9.29132 0.00532005)
(-1.01384 -0.64378 0.0368772)
(-0.739831 3.89095 0.00100346)
(6.98936 8.69292 -0.0661717)
(-0.118675 12.1772 -0.000152996)
(2.26216 7.68657 0.0177247)
(-1.41298 3.28386 -0.0119508)
(-0.488578 -3.51486 -0.0037092)
(0.43512 12.6572 0.0351847)
(6.82523 19.458 -0.0705368)
(10.5372 14.791 0.0519392)
(-0.507746 3.51144 0.0211717)
(-0.757476 3.58952 0.0474461)
(4.04501 9.61185 0.0055799)
(0.281023 9.5071 0.021557)
(-0.669294 3.3167 -0.00587069)
(-0.950487 4.31818 0.0100676)
(4.68261 9.75899 -0.0169825)
(0.0149969 8.60642 -0.0149908)
(3.82707 8.82167 -0.0120949)
(0.841905 0.260462 0.00185867)
(-1.80239 0.219376 -6.26028e-05)
(9.78835 9.56653 0.0436557)
(-4.11774 8.41131 0.0254322)
(-1.17908 3.28161 -0.00309122)
(-3.21323 -0.346305 -0.00880535)
(-6.13808 5.8051 -0.0166561)
(0.832324 6.45877 0.0123753)
(-0.716154 4.11582 0.00136872)
(2.18694 6.7787 0.0444467)
(5.65982 11.7173 0.0779529)
(-6.55767 6.97062 -0.0568632)
(-1.59112 10.4951 -0.0577382)
(12.2619 10.3204 0.0989263)
(-0.728212 3.85029 0.000501075)
(-0.687814 3.75996 -0.00248447)
(-5.73644 7.91531 -0.0100681)
(15.334 19.9991 -0.0347487)
(2.44354 5.40079 0.0510459)
(2.76696 10.4671 -0.0512088)
(-2.08025 7.67523 -0.0183833)
(-2.19545 10.5127 -0.400699)
(-2.09266 -4.23079 0.0199472)
(0.452782 2.87049 -0.00103063)
(-5.86557 5.97672 -0.019845)
(1.79103 13.1291 -0.0980091)
(2.69508 11.3681 -0.0261491)
(-1.4652 4.35188 -0.170003)
(3.58518 4.81214 0.0285209)
(-0.0799589 3.47333 0.00699583)
(3.06093 18.8689 0.0250183)
(4.2644 4.01746 -0.0185779)
(9.55131 10.2078 0.0698395)
(1.17987 4.05319 0.00274557)
(15.7465 10.3133 0.0333746)
(-0.794834 6.16623 -0.0010342)
(-0.998445 4.99052 0.00190461)
(0.212094 7.92713 -0.0239122)
(-0.132328 3.6159 -0.0210997)
(-5.23146 4.92812 0.00127524)
(1.74487 8.34846 0.186478)
(0.545244 8.90161 -0.0128292)
(7.12655 10.2817 0.0276457)
(-0.733815 4.21854 0.00207889)
(-0.261015 3.95627 0.00369237)
(-4.31666 1.3123 0.00935692)
(-1.66689 4.34021 0.000195009)
(4.98652 12.9252 -0.0280103)
(9.76229 3.59264 -0.0249626)
(-0.490404 0.829083 0.0138918)
(-1.77848 10.5541 0.000931247)
(-1.04776 4.95059 0.00124433)
(-2.55843 -1.53626 0.0460163)
(-1.27698 3.68778 -0.00021697)
(-0.552488 -2.62326 -0.00127926)
(3.08836 0.378567 -0.0181587)
(-0.913754 4.30197 0.00887326)
(2.80789 3.36984 -0.00587088)
(-1.59645 7.34084 0.0135818)
(-1.82458 1.57074 -0.00108918)
(-2.56505 4.78595 -0.00142175)
(3.00927 16.9056 -0.0600707)
(-1.87688 10.2316 -0.0722146)
(-4.94133 3.34225 0.0118864)
(-3.65523 0.808494 0.0106682)
(-5.08445 6.78367 0.015794)
(11.0017 20.0084 -0.00275425)
(3.74361 9.53306 -0.0411768)
(-1.3117 4.56659 -0.00560276)
(-1.24521 8.58093 -0.00177956)
(2.65457 10.5186 0.020839)
(4.61435 4.70455 -0.0327003)
(-1.12851 3.51739 -0.00683163)
(-6.80679 7.96597 -0.00925656)
(-1.93765 4.70208 0.00414727)
(2.07683 10.175 0.0803181)
(3.28399 6.12218 0.0154132)
(4.48965 8.19808 0.0384526)
(-2.41018 -6.61474 -0.0226491)
(2.89653 3.18463 -0.00518496)
(2.37039 5.44821 6.40168e-05)
(-1.27404 9.31955 0.0171191)
(7.03033 11.6565 0.0552342)
(7.36693 4.85831 -0.0387245)
(6.08019 4.74058 0.0700696)
(5.28942 10.8921 0.0142741)
(-0.738921 0.144868 0.0040093)
(-0.0833568 2.96421 -0.0154946)
(2.7455 7.31336 0.0209312)
(8.87264 -0.227288 0.10287)
(-2.14272 6.19364 0.00418517)
(0.466082 8.2379 -0.0244692)
(-1.2493 6.095 0.133533)
(3.79838 17.656 -0.0469883)
(-2.53482 4.18271 0.00886752)
(2.2978 7.80379 0.00692627)
(0.635818 6.47126 0.109799)
(9.13736 4.75368 0.0505769)
(-0.430319 9.08802 -0.00152913)
(4.13795 9.658 -0.0163313)
(1.29906 6.21151 0.00971026)
(3.31195 11.6805 0.0807847)
(-0.749181 -11.0015 -0.0572462)
(2.91952 15.9362 0.0497124)
(-0.227246 8.81759 -0.14504)
(3.99381 9.56715 -0.00271183)
(1.13311 11.615 0.06747)
(2.01201 8.67295 -0.0203337)
(-2.92838 3.5033 -0.00614423)
(0.012095 3.68692 -0.00377241)
(2.95716 10.1864 0.200813)
(0.394882 7.63483 0.00044337)
(6.18816 14.5279 0.0171178)
(5.51106 8.78367 0.0311677)
(0.769166 7.96894 0.0235152)
(12.4732 16.7756 -0.0251879)
(0.374802 4.91225 0.0058698)
(-5.13935 4.8525 0.0356729)
(1.34268 11.9599 0.0210056)
(0.402621 8.48132 0.00201114)
(-1.93885 4.91349 -0.0115677)
(0.019454 4.35517 1.80502e-05)
(-0.0853142 5.07674 0.00400123)
(-2.77866 7.33597 -0.00550658)
(-3.83094 7.1052 0.00469552)
(-0.5044 2.05588 0.00163285)
(-0.851879 4.20078 -0.00628358)
(4.87939 6.71348 0.0570017)
(-1.04737 5.21938 0.00122232)
(-3.51379 3.85903 -0.00294314)
(6.22977 6.40907 -0.041627)
(-3.01419 4.44468 0.036706)
(1.76726 -5.83523 -0.186051)
(-0.486745 0.831871 0.00701847)
(-0.834646 7.86944 -0.0176067)
(-2.37413 -0.445991 -0.00983546)
(3.13178 8.9818 -0.0487872)
(3.81239 11.9256 -0.163346)
(-1.96994 4.09729 -0.00237662)
(-2.18596 2.06943 0.00885763)
(-1.69722 3.83566 -0.00665716)
(12.0421 19.2 -0.035104)
(-7.09341 2.62299 0.492422)
(18.3917 23.7959 -0.116328)
(10.1932 19.8941 0.0469632)
(3.32216 6.66925 0.0306323)
(-3.75419 3.96612 0.0216235)
(4.729 13.3099 -0.010139)
(13.2399 16.5096 0.0449423)
(1.30191 13.2716 -0.824078)
(9.94424 20.1855 -0.031228)
(-1.00198 4.18956 0.01668)
(-0.417162 4.89714 0.00255501)
(0.0869536 9.65434 -0.0161672)
(0.554082 5.49826 0.0541311)
(-1.95446 6.67802 -0.00596441)
(-2.61762 5.07444 0.0792942)
(-1.96275 0.472463 0.000246494)
(6.02394 16.7735 -0.0127631)
(0.12716 1.4116 -0.0093141)
(-2.19787 4.80905 3.82356e-05)
(-0.98176 4.69937 -0.00229416)
(-0.144531 4.5059 0.0392672)
(6.21742 14.7985 0.0838826)
(-0.164532 -0.263145 -0.00190243)
(4.86075 19.4104 0.0153855)
(20.7542 27.6925 -0.0145192)
(3.6742 3.8366 0.0247337)
(-1.7958 3.50502 -0.000346509)
(-1.31667 4.37677 -0.000909209)
(1.54339 3.49964 -0.0281277)
(-2.16055 6.16311 0.33929)
(-6.8801 9.10401 -0.0185391)
(-3.78061 -4.21507 -0.0159505)
(-1.19934 4.62954 0.0777005)
(6.83066 2.02597 0.0301124)
(-0.751751 3.62852 -0.0113012)
(-3.02875 6.2336 0.00184543)
(7.32961 12.3105 -0.0819787)
(0.645714 18.4769 -0.00741048)
(-7.02177 1.99339 -0.0491408)
(-0.395306 4.25282 0.00563488)
(9.36617 19.5886 0.234734)
(-0.149879 5.46778 0.00185038)
(0.0995778 -0.628216 0.0105638)
(-1.64817 2.86646 -0.0120875)
(2.91896 5.54208 0.0078612)
(12.5632 17.5303 -0.0168941)
(-3.3805 6.64745 0.00299757)
(-1.42028 2.68658 0.00810937)
(-2.83379 3.43157 -0.086135)
(-2.20847 4.01109 -0.00931008)
(8.51261 23.4612 0.161291)
(4.23771 6.71928 0.0150142)
(-1.2907 2.41655 0.000147897)
(15.7972 21.289 -0.107039)
(2.28542 6.94195 0.00888365)
(7.44958 19.1461 0.0542634)
(-7.08418 -3.48653 0.234265)
(1.03489 4.44348 0.20147)
(-0.142933 3.87447 -0.00680702)
(-0.793361 1.97652 -0.0279523)
(0.854139 0.535814 0.00893851)
(-5.14995 6.74092 -0.0211191)
(-2.19813 17.3698 0.0144917)
(-0.841754 3.00763 -0.0191214)
(0.504361 4.31335 0.00217143)
(1.44049 10.3302 -0.0136838)
(4.70517 9.4766 -0.0392211)
(1.90105 7.66834 0.0115617)
(2.04825 4.77405 0.0044676)
(4.13071 14.9766 -0.00817486)
(-4.05383 0.888119 0.0715576)
(-2.17964 3.38482 -0.0254517)
(-0.349009 5.31039 0.0411424)
(-4.07568 5.9148 -0.00390182)
(0.672751 7.91728 -0.0254203)
(-1.15403 3.85104 0.00101921)
(0.53846 1.40021 1.96949e-05)
(23.5778 23.2326 -0.00402039)
(5.27365 9.82976 0.01206)
(2.4036 5.88674 -0.0246292)
(-2.44626 -4.11596 0.0780213)
(-1.59383 3.63558 -0.000657177)
(-2.15081 4.67754 0.00566192)
(-3.19821 3.9012 0.013782)
(-5.05249 5.39356 0.0377148)
(-1.0715 1.82356 0.00139285)
(7.62417 9.82654 0.0147685)
(0.029787 2.15869 0.0039088)
(4.59174 14.5785 -0.010142)
(0.208297 3.26356 0.00877858)
(4.36827 8.62907 -0.0171817)
(1.90517 6.53322 0.0128045)
(-2.1313 11.0968 0.00777398)
(-1.47922 2.15332 0.0048759)
(2.09619 10.2124 0.00163013)
(0.139116 4.81569 -0.00578637)
(12.5876 18.8414 -0.04207)
(-3.60422 5.79086 0.00517842)
(0.312095 4.00334 0.000429994)
(8.30151 17.3839 0.0519339)
(-0.169845 4.84429 -0.00286344)
(2.32829 9.33702 0.0305921)
(11.5652 10.4838 0.0913612)
(14.9216 20.0804 -0.327369)
(-1.61662 12.3741 0.0226318)
(1.26442 5.25327 0.00706851)
(4.70825 12.7894 0.0901285)
(5.07083 18.4414 0.131264)
(3.47136 7.42778 0.0778268)
(0.492105 12.0559 0.00168044)
(-0.0958495 4.78323 -0.00263837)
(-0.960389 2.17337 0.00170376)
(-4.90177 2.04725 0.057447)
(0.312283 4.55349 -0.00272161)
(8.90246 19.8582 -0.0748901)
(1.09131 -5.01292 -0.010094)
(-4.4551 7.16517 0.0481069)
(0.831292 3.26513 0.00611355)
(14.2831 10.0999 -0.0085676)
(2.60032 10.751 -0.00416767)
(-1.7547 -3.58449 0.0390672)
(-0.204835 2.45841 -0.00238766)
(-4.77882 9.91084 0.0836374)
(1.16504 6.85266 -0.0172529)
(4.40644 3.73103 -0.00516072)
(4.67751 9.77675 3.25513)
(-2.05908 4.53524 -0.000209859)
(5.67291 8.41249 0.0599372)
(-1.22808 4.33527 -0.000717266)
(-4.61532 8.735 0.0279217)
(-4.40137 -4.37475 -0.0564728)
(-1.36867 4.08598 0.0187194)
(-3.22571 5.83217 0.00268157)
(0.159501 14.7413 -0.0228284)
(-5.14186 7.63833 -0.00744951)
(-0.548545 6.43672 -0.0159424)
(-1.4907 4.64242 0.00298855)
(3.1868 12.4371 0.214006)
(15.563 21.7863 -0.083102)
(5.04346 6.14524 0.0174358)
(-4.13725 -0.0117969 -0.0319974)
(-2.78851 5.28741 0.00518108)
(12.6546 16.1971 -0.0254363)
(-3.27085 15.792 0.00704564)
(4.47927 14.2803 0.0471493)
(0.437019 5.00135 -0.00987663)
(-3.23768 4.41848 -0.00843254)
(5.1055 11.1409 0.11807)
(-1.44071 3.7768 -0.00448059)
(-3.86599 9.25113 -0.0151474)
(-5.42971 -7.75797 0.0136259)
(4.60209 9.38681 -0.017841)
(-1.50385 6.5889 0.0529145)
(-3.97477 4.50337 0.0173339)
(-4.12973 -1.90284 -0.00475066)
(-1.44727 4.2512 -0.00627802)
(3.97828 -1.61409 -0.197631)
(-0.546658 3.72244 -0.00910103)
(6.93985 11.5026 0.0318303)
(-4.7088 7.82727 0.0148708)
(-6.61648 -6.98749 0.0381346)
(1.83478 -0.993811 0.0134988)
(-2.89746 4.16142 0.00567225)
(-2.07606 3.78493 -0.000205853)
(7.66079 11.7115 -0.0759453)
(0.862056 2.29344 0.0244904)
(3.38341 9.66053 -0.139683)
(4.60699 5.5982 -0.0220763)
(-0.403976 7.27395 0.0294633)
(1.43472 8.57997 -0.0171715)
(-4.95712 10.6579 -0.00694433)
(1.77196 10.1465 -0.0498201)
(-0.79633 4.01137 0.00159248)
(-1.6031 0.763601 0.0509504)
(7.84227 10.5521 -0.122626)
(0.40525 3.44356 0.00214372)
(2.15974 6.2733 0.0462308)
(-0.761255 6.05448 -0.00744083)
(5.24622 10.5704 -0.0301947)
(-0.665144 8.36289 0.110776)
(-1.7932 3.06969 -0.00601809)
(-0.0770019 9.28659 -0.0169774)
(-3.49085 4.67883 0.00178307)
(-2.17426 7.12279 -0.00768075)
(0.0962764 3.59218 0.00876991)
(1.8934 8.02044 0.0128708)
(-0.501233 4.82339 -0.00564208)
(0.75146 4.37894 0.00290487)
(-3.93708 0.390164 -0.0615621)
(1.22479 10.5939 0.0329977)
(3.14829 6.9279 0.000494353)
(-0.837737 7.22721 -0.0138293)
(-0.0744929 0.698646 -0.00113626)
(3.37818 3.29291 -0.0244179)
(8.06452 15.9529 -0.00276894)
(3.42713 6.07795 -0.00120014)
(-2.14633 0.101294 0.0553146)
(17.4624 24.0315 0.00437829)
(0.11141 5.32108 -0.0185476)
(-2.00543 3.84889 -0.00280371)
(4.61868 6.03523 0.00717012)
(-3.01755 9.96725 0.0112201)
(1.22057 11.1163 0.0409296)
(3.25889 3.95473 0.0417839)
(-2.14766 6.48503 0.00490389)
(9.13347 -5.73821 -0.0265521)
(-1.21771 4.26106 -9.17123e-05)
(-2.76157 5.27438 -0.00232282)
(0.826978 4.89417 -0.00306546)
(2.36763 10.6534 -0.00785877)
(-0.41166 0.599582 -0.00365314)
(3.50407 -3.62205 -0.0753217)
(3.13691 10.5901 0.00993613)
(0.335391 9.43511 0.00191416)
(3.82706 9.18954 -0.128314)
(-4.19264 6.49098 -0.00568211)
(0.11699 3.05623 -0.00234575)
(8.04608 10.4505 -0.0864955)
(3.94562 5.69031 -0.0638237)
(-3.14107 4.03079 -0.0144112)
(3.64321 20.8793 -0.0271851)
(0.159169 1.01165 -0.00250739)
(5.92865 9.71485 0.0472958)
(4.24841 12.365 -0.0813773)
(-1.99937 3.19896 0.00234609)
(0.16736 3.64109 0.0166346)
(6.87782 12.3797 0.0250517)
(-0.181433 3.82972 0.00189265)
(2.77572 9.09768 -0.00565675)
(-2.79216 -2.25535 0.0494053)
(-0.65052 1.30922 0.0171529)
(1.16123 5.4995 0.0394837)
(6.81859 5.79571 -0.0799003)
(2.38984 8.95465 0.0104199)
(4.28447 2.48216 0.00915251)
(8.07718 3.14069 0.0084386)
(-0.465251 4.28453 0.00120877)
(0.693028 5.73227 0.0092436)
(1.17933 5.2347 -0.0710201)
(7.06148 4.94872 0.00406227)
(5.6094 5.45104 -0.0375698)
(-1.30457 4.66222 -0.00239846)
(-2.50257 2.13818 0.0169842)
(-0.698146 1.07024 0.000372579)
(4.32466 9.86285 0.00240361)
(3.1427 13.7554 -0.0279916)
(-0.949686 3.8585 -0.000858715)
(3.46731 -2.37615 -0.0242073)
(-1.38471 2.02273 0.00164898)
(-1.69427 2.27242 -0.00400746)
(0.226877 10.9178 -0.104273)
(9.54839 16.7667 -0.109532)
(5.72454 7.60911 0.00129615)
(-5.44047 -1.37024 0.0408877)
(3.01147 0.842819 -0.00317106)
(-0.596573 4.41158 -0.00549266)
(0.236702 4.47151 0.0101197)
(-0.549994 -4.4674 -0.0814746)
(0.930165 0.874222 -0.00642677)
(4.6417 10.5716 0.0310561)
(0.747521 14.5265 0.0949465)
(7.00185 17.7097 0.0435737)
(7.79784 8.46678 -0.0361925)
(2.81437 7.91186 -0.0203187)
(4.5273 10.5319 -0.00253599)
(11.2711 16.4538 -0.0602471)
(-0.786729 4.44499 -0.00115369)
(1.15203 2.9897 0.0184544)
(5.65224 15.5464 0.0253414)
(-1.18461 5.27658 0.00057472)
(-2.81221 4.66345 0.00768426)
(-0.358429 -1.69045 0.122038)
(21.7515 18.7585 0.0251546)
(-1.5729 12.4973 0.0971953)
(1.22222 9.25118 0.00247011)
(-0.0969485 3.63312 0.000349767)
(-4.09908 6.52976 -0.017401)
(2.10994 11.9583 -0.0425163)
(-1.37404 5.2503 -0.00609365)
(6.43185 9.3835 0.10349)
(-0.810226 4.69875 -0.00171864)
(-0.295487 -1.999 -0.0125907)
(-2.6084 5.64943 -0.00798486)
(2.90179 10.0579 0.0120164)
(3.25067 9.20274 -0.0162363)
(1.77187 -4.09456 0.0296679)
(7.74233 13.4042 -0.053925)
(-0.521172 2.49454 0.00349764)
(-3.1152 7.57463 -0.00265174)
(-0.768475 3.7822 2.78781e-05)
(-6.69122 9.18617 -0.0180716)
(-2.30069 1.19093 -0.0132953)
(2.59005 9.11704 0.0376849)
(1.37495 7.57326 -0.011631)
(-3.98033 6.33802 -0.00235536)
(-5.22049 6.76408 0.0068719)
(0.136487 3.49106 0.00963231)
(0.355493 4.15867 -0.002029)
(3.28768 5.25955 -0.00721009)
(-7.42664 6.50057 -0.00735943)
(-0.491686 -1.35307 -0.0025748)
(0.631584 4.77658 -0.00140657)
(4.10264 6.52548 -0.00300892)
(4.08087 8.63972 -0.00483379)
(-0.223427 5.83144 -0.00777921)
(-0.623776 1.08376 -0.116268)
(2.18506 7.9773 0.0356565)
(4.72249 6.75364 0.0603195)
(0.332829 5.7914 -0.0222479)
(-2.63988 7.77227 0.00586433)
(-0.870261 3.70209 -0.0071922)
(-1.60745 10.5638 -0.186703)
(3.72326 3.8851 -0.00153473)
(5.28348 14.9472 0.0231772)
(-1.88111 5.27463 0.0557083)
(0.569236 4.28622 0.0218005)
(-1.26765 3.54543 -0.000903849)
(0.012301 5.81633 -0.0823477)
(-0.781245 5.1528 0.0017007)
(-1.21134 2.64935 -0.00501153)
(-1.31526 3.02404 0.00251971)
(-1.41948 4.10406 0.000816894)
(-3.38723 5.18086 0.00711581)
(3.8838 13.526 -0.188723)
(-1.46651 4.73314 0.00450846)
(-0.423997 6.32797 0.00572177)
(-3.85639 6.03341 0.00897543)
(10.1702 3.55233 0.00511076)
(2.86944 -1.41909 -0.055081)
(-0.747925 5.4287 -0.0055426)
(7.72878 20.7778 0.338181)
(3.86387 10.494 0.0332157)
(-1.01636 3.61804 0.0086583)
(11.6712 18.9527 -0.0297471)
(1.49213 3.27716 -0.0240763)
(-1.38152 11.4583 0.0648797)
(-1.71535 0.168758 0.00868001)
(0.287766 1.9404 0.0139722)
(0.0298521 1.40868 -0.00139503)
(-3.93045 5.24507 0.0161286)
(-0.47591 3.81856 -0.00359773)
(-1.8971 9.49304 -0.00952466)
(0.505021 9.93979 -0.0172529)
(-6.28858 3.16194 -1.2255)
(6.11014 13.5008 -0.0423841)
(0.581001 4.15415 -0.000408035)
(-2.15873 5.82898 0.0111408)
(-2.43616 6.32098 -0.0182453)
(4.32351 7.68166 0.0160244)
(2.19133 13.0397 0.0521351)
(1.12132 -7.92744 -0.117629)
(-1.71458 4.65178 -0.00336705)
(-0.819794 7.30613 -0.0209277)
(-1.12743 7.03845 -0.00289863)
(-5.4898 5.50044 -0.0354787)
(-2.22261 4.31913 0.0107366)
(-4.10207 8.18568 0.0133688)
(0.553191 4.70658 0.0176905)
(1.26344 12.3749 0.0712486)
(0.357793 2.43302 0.00764002)
(-5.63694 -6.36354 0.0976021)
(5.001 -0.998508 0.0826576)
(-3.64912 3.33977 0.00773704)
(-6.55384 4.29919 0.0826888)
(4.24244 11.6597 0.00394031)
(14.0819 18.2951 0.0307717)
(-0.38178 2.6275 -0.00671593)
(2.08755 9.63699 -0.0402201)
(2.12738 10.3982 -0.0607267)
(-2.84228 -2.9781 -0.0290915)
(-1.89662 6.98471 -0.000260789)
(11.183 16.4399 0.0298979)
(-3.02468 5.42061 0.00525376)
(0.0358268 3.23037 0.00164681)
(-1.14653 3.20338 -0.0114706)
(-0.927693 4.66077 -0.00283682)
(-1.74162 4.22939 0.00168976)
(-1.02658 4.7302 0.00366862)
(7.83307 19.1054 0.0659293)
(4.03109 18.1149 0.0295336)
(0.663067 3.87126 0.00486267)
(-1.99285 7.96623 -0.000886642)
(3.96417 6.25237 0.000933732)
(-2.89691 5.64924 0.0140755)
(-0.104141 4.51007 -0.00416573)
(3.21354 10.847 0.0573161)
(1.39663 4.60573 0.00224182)
(-2.53686 3.32292 0.00214906)
(-1.09694 5.80753 0.00583568)
(3.38543 11.5645 -0.0475884)
(-2.62383 4.55293 0.0316785)
(0.617497 5.64146 0.0146808)
(1.37039 5.16252 -0.0124157)
(0.423294 6.5361 -0.00773418)
(0.147042 1.59792 -0.00467624)
(-5.79942 7.22216 0.0251822)
(8.14585 11.6575 0.00637458)
(-6.52506 -4.08014 0.0196034)
(7.33802 9.61042 0.0421128)
(-3.25944 9.21178 0.0371328)
(-0.844927 8.73478 -0.038918)
(-0.0259669 7.21557 0.0124935)
(7.15832 11.3268 0.016003)
(1.79186 8.68771 -0.0294594)
(0.510426 3.83273 0.0197699)
(-2.14127 3.55537 0.01868)
(-3.37459 10.5731 0.00323783)
(-3.10886 7.76085 0.0231446)
(-2.07813 6.39985 0.00383044)
(2.39725 -3.43202 0.101311)
(0.186305 2.68019 0.00096756)
(3.31919 9.83671 0.00155053)
(2.99387 7.81139 0.0235734)
(-1.70767 10.4435 0.0183962)
(-0.803495 4.25798 -0.00379006)
(-4.0655 4.68392 -0.0097125)
(-0.891245 5.21422 -0.000109)
(-1.43992 4.20588 -0.000413269)
(5.42649 4.85443 0.0348539)
(-2.65444 4.78166 -0.0100043)
(-0.691152 3.40917 -0.00642613)
(-0.269605 4.28981 -0.00665152)
(-0.878712 4.03498 -0.011727)
(-2.11214 -8.63926 -0.0139962)
(-1.17158 4.19719 0.0238182)
(13.5661 8.58346 0.37375)
(-8.73178 -4.28231 -0.0441299)
(-1.13049 3.8656 0.00503209)
(-1.05624 3.96678 -0.00307535)
(1.45309 10.409 -0.153446)
(0.273894 9.32792 0.0146701)
(-0.0595802 4.89015 0.00220758)
(-2.62766 8.50881 0.00994704)
(-0.420345 4.91703 -0.00584481)
(-1.57324 4.01494 -0.00142559)
(8.39634 8.32646 0.0296666)
(8.16085 6.74483 0.0620126)
(-1.62562 7.1833 -0.0334782)
(3.89121 10.4404 0.00709488)
(1.76837 13.313 0.0586463)
(15.3619 -0.513458 -0.0320245)
(-1.62692 3.11782 0.000924668)
(5.16643 7.48238 0.00454661)
(8.4616 18.1934 -0.0166623)
(-2.06955 6.61804 -0.0704295)
(-1.57137 4.64662 -0.00389914)
(1.95725 6.80281 0.0127525)
(1.25097 2.09684 -0.000788819)
(-1.7021 3.25478 -0.00238229)
(-3.08315 5.70542 0.0103047)
(-2.70479 5.28969 -0.0115735)
(0.732752 -1.70428 0.00467387)
(1.24191 -0.262406 -0.0776507)
(6.13106 11.819 0.0117081)
(2.33545 -1.13651 0.00310092)
(-1.82789 4.01207 0.00169304)
(-2.6749 8.70943 0.00536822)
(-5.91644 4.84669 -0.0133387)
(8.52328 20.62 0.0916829)
(-0.243746 4.03383 -0.00305876)
(0.945655 3.98053 -0.00610909)
(11.4072 13.8895 -0.00998577)
(1.39629 7.80068 -0.0107184)
(-2.11233 6.53776 -0.0108378)
(-0.183623 6.80127 -0.0100847)
(-5.5322 6.3363 0.0160022)
(6.24309 14.0418 -0.0821096)
(0.86684 1.22073 -0.000459731)
(0.0113545 2.63423 0.00450424)
(-0.885752 3.55726 0.00113364)
(6.43201 7.21719 -0.0227323)
(0.736105 3.79938 -0.0161305)
(6.73306 12.9503 -0.205286)
(2.67104 13.5775 -0.0389684)
(-0.568352 3.84986 0.000622003)
(5.1516 15.7645 -0.0591608)
(-1.19987 1.45524 0.0277635)
(-3.55653 5.53728 -0.00259665)
(-0.101952 -2.37857 0.00903923)
(-1.49238 2.78057 0.000263554)
(3.67266 15.5885 -0.0192847)
(7.05698 7.35697 0.0665843)
(-1.5674 9.43883 -0.0166848)
(-0.390491 4.63146 -0.00180584)
(0.550484 3.67125 0.0125744)
(3.25549 6.74697 0.00119671)
(1.96 6.79006 -0.00531191)
(-2.69313 2.71123 0.00538196)
(-4.7211 6.82282 -0.0109241)
(2.41514 11.2031 0.0277799)
(6.47462 9.96604 0.0755574)
(4.55302 6.99521 0.0416051)
(1.91196 -2.08817 0.0278789)
(3.00389 11.6314 -0.0264717)
(-0.098362 4.16491 0.00496766)
(-6.60876 4.31774 -0.0309758)
(-0.92305 6.98014 0.030954)
(-0.673747 13.6786 0.000114899)
(-1.854 4.4585 0.000891258)
(-5.66062 8.97408 -0.0198232)
(-1.24602 1.87329 0.011119)
(1.53747 4.33694 0.0100754)
(-5.07817 4.98203 -0.0243886)
(5.31966 18.9845 0.0197379)
(13.5005 14.1472 -0.231376)
(0.780841 3.24124 0.00337344)
(4.03373 10.3292 -0.0333876)
(-1.74887 4.78684 -0.0040331)
(-1.21219 4.24967 -7.91248e-05)
(5.52738 13.486 0.0315551)
(-1.66364 11.4465 -0.043725)
(-0.272237 1.15981 0.0185031)
(-1.52954 5.77177 3.01092e-05)
(0.618596 -5.30874 0.00374554)
(-1.16927 3.16335 -0.000570001)
(-1.60246 7.27253 0.00771714)
(-1.18257 4.1276 -0.00549149)
(0.662241 3.31498 -0.0258368)
(0.544594 2.40412 -0.00322543)
(-0.572114 4.80494 0.00586086)
(3.14939 11.5239 0.0158832)
(7.30149 7.41585 -0.019405)
(-0.777006 1.84349 0.000756125)
(-0.968211 7.79924 -0.00254064)
(-1.60666 -1.00419 -0.0406508)
(2.63732 11.1086 -0.00118496)
(-2.14625 4.09933 -0.00539336)
(-5.52347 3.05977 0.0170391)
(-0.156077 2.82162 0.0357286)
(-4.29671 6.82187 0.0185705)
(-1.71094 3.7776 -0.00244699)
(8.34235 9.75781 0.0288717)
(-1.20455 3.21397 -9.08955e-05)
(-4.09913 4.75513 -0.0162906)
(-1.6451 2.95065 0.00395352)
(-0.0154904 -3.01842 -0.0416542)
(1.72418 10.0443 0.0515408)
(-1.3787 3.75452 0.0278856)
(5.76922 8.55798 0.0240533)
(5.64978 16.1598 -0.0444297)
(11.7513 16.7509 0.0110305)
(-1.33397 5.06759 -0.116597)
(-0.419836 2.26748 0.018302)
(0.0833757 -0.553492 0.0024636)
(-0.966655 4.50456 0.0157183)
(-3.19844 6.34425 -0.0199229)
(12.0821 13.0042 0.0547803)
(-7.39175 7.46775 -0.00885561)
(-11.3727 10.7734 0.125059)
(-1.75301 7.7435 -0.0175478)
(-0.373674 3.5511 0.00220159)
(-0.392536 4.34648 -0.017432)
(4.56865 10.643 -0.0239611)
(-4.1061 -1.4786 0.00784147)
(-4.57568 4.222 0.0149658)
(-0.16178 3.4668 -0.0111078)
(-0.652667 8.16931 0.038165)
(-2.24468 4.46799 0.0233635)
(-3.851 6.76643 0.0153245)
(15.0596 16.6164 -0.0587317)
(-8.40335 6.60492 0.0535152)
(-0.646395 3.57818 -0.000789856)
(-0.721677 -3.07791 0.00799305)
(-0.531011 2.30425 -0.0162818)
(1.06524 1.72899 0.0642537)
(0.0405431 4.27626 0.00474591)
(-2.45464 10.1192 -0.610912)
(0.773224 7.80092 -0.00790188)
(-1.84497 1.71591 0.00526821)
(2.29686 8.26994 -0.0845486)
(1.40287 4.54591 -0.00508871)
(1.18458 5.39121 0.00109567)
(-7.41929 5.70488 0.0212322)
(0.312598 0.637907 -0.0110433)
(-0.954351 4.00576 0.00419365)
(-4.42311 6.77404 0.00422485)
(-1.55395 7.05273 0.00480683)
(2.55188 11.7924 0.0281216)
(3.4763 -15.5062 0.092321)
(-7.45813 8.4244 -0.123279)
(6.10172 12.2296 0.0149942)
(-0.00625793 -4.63196 0.0580264)
(-1.01922 5.50111 -0.0047879)
(1.2332 4.89432 0.00336579)
(0.416026 6.53356 -0.00878988)
(0.73976 7.64735 0.0194143)
(-2.93919 3.02407 0.0348322)
(0.479854 4.59036 -0.00880003)
(-0.284055 4.04274 0.0048887)
(-0.311769 5.02213 -0.0129123)
(0.106732 0.281782 0.00325192)
(1.89826 7.48952 -0.0168282)
(-0.597146 4.61752 0.00853551)
(-0.559173 4.05317 -0.00459345)