/*--------------------------------*- C++ -*----------------------------------*\
| =========                 |                                                 |
| \\      /  F ield         | OpenFOAM: The Open Source CFD Toolbox           |
|  \\    /   O peration     | Version:  4.1                                   |
|   \\  /    A nd           | Web:      www.OpenFOAM.org                      |
|    \\/     M anipulation  |                                                 |
\*---------------------------------------------------------------------------*/
FoamFile
{
    version     2.0;
    format      ascii;
    class       volScalarField;
    location    "0.1";
    object      p;
}
// * * * * * * * * * * * * * * * * * * * * * * * * * * * * * * * * * * * * * //

dimensions      [0 2 -2 0 0 0 0];

internalField   nonuniform List<scalar> 
500
(
-7.02839e-08
-3.5507e-08
3.11923
3.11923
0.0143958
0.0143958
-2.29202
-2.29202
-0.0471789
-0.0471789
2.5968
2.5968
0.0162871
0.0162872
-2.82722
-2.82722
-0.0450105
-0.0450104
-0.00526802
-0.00526784
-0.0995907
-0.0995907
-0.167002
-0.167002
0.0041412
0.00414129
0.0540204
0.0540204
-0.0295992
-0.0295993
-0.0752801
-0.0752801
-0.0549214
-0.0549215
-0.0919896
-0.0919896
-0.104401
-0.104401
-0.109777
-0.109777
0.00348621
0.00348622
0.0745848
0.0745849
0.00106794
0.00106839
-0.175579
-0.175579
-0.0367251
-0.036725
-0.0261377
-0.0261378
0.0473185
0.0473184
-0.209757
-0.209757
0.04963
0.04963
-0.0453255
-0.0453255
0.00506771
0.00506763
-0.0749484
-0.0749485
0.00901088
0.0090111
-0.0491071
-0.0491072
-0.00306154
-0.00306142
-0.0181776
-0.0181772
-0.0511263
-0.0511261
-0.0306374
-0.0306374
-0.243074
-0.243074
0.0275764
0.0275763
-0.0360458
-0.0360459
0.0104112
0.0104111
0.628454
0.628454
0.0278961
0.0278961
-0.45611
-0.45611
-0.0362866
-0.0362866
-0.611394
-0.611394
0.389638
0.389638
-0.0560471
-0.0560473
0.00248212
0.00248199
-0.0684889
-0.0684889
-0.323618
-0.323618
0.0359495
0.0359495
0.234482
0.234482
-0.0470292
-0.0470292
-0.33035
-0.33035
0.028182
0.028182
0.182603
0.182603
-0.096399
-0.096399
-0.126463
-0.126463
-0.00506551
-0.00506536
0.0571988
0.0571988
-0.442356
-0.442356
-0.0491273
-0.0491273
0.32641
0.32641
0.0102691
0.0102692
-0.171528
-0.171529
-0.0205571
-0.0205572
-0.0192493
-0.0192494
0.101696
0.101695
-0.0521327
-0.0521328
-0.198297
-0.198297
0.0582383
0.0582383
0.0489566
0.0489563
-0.482572
-0.482572
-0.0548363
-0.0548363
0.586269
0.586269
0.0202236
0.0202236
-0.249632
-0.249632
-0.0456354
-0.0456351
0.0416972
0.041697
0.0264977
0.026498
-0.121893
-0.121893
-0.00635438
-0.00635396
-0.119961
-0.119961
0.0334805
0.0334812
-0.104474
-0.104474
-0.0836188
-0.0836186
-0.00510014
-0.00509999
0.0982206
0.0982207
-0.0864813
-0.0864811
-0.16284
-0.16284
-0.0173781
-0.017378
0.124693
0.124693
0.819051
0.819051
0.0359282
0.0359282
-0.586881
-0.586881
-0.0267053
-0.0267054
-0.781607
-0.781607
0.569241
0.569241
-0.0642225
-0.0642226
-0.00543891
-0.00543889
-0.0409066
-0.0409067
-0.472009
-0.472009
0.0219519
0.0219517
0.381555
0.381555
-0.616362
-0.616362
-0.0510304
-0.0510304
0.403707
0.403707
0.0203172
0.0203173
1.34983
1.34983
0.0269213
0.0269213
-0.844889
-0.84489
-0.0348127
-0.0348128
0.937748
0.937748
-1.2263
-1.2263
0.00362844
0.00362857
-0.0568071
-0.056807
-0.107211
-0.107211
-0.137711
-0.137711
-0.012037
-0.012037
0.115839
0.115839
1.60766
1.60766
0.0253005
0.0253005
-1.13731
-1.13731
-0.0363491
-0.0363491
1.2721
1.2721
-1.47633
-1.47633
0.00530674
0.00530686
-0.0557052
-0.0557051
-0.475533
-0.475533
-0.047541
-0.0475409
0.43568
0.43568
0.0181322
0.0181324
-0.0404827
-0.0404829
-0.160903
-0.160903
0.0585143
0.058514
0.0256235
0.0256233
-0.211777
-0.211777
-0.0315059
-0.0315063
-0.0326829
-0.032683
0.120757
0.120757
-0.195313
-0.195314
-0.0283756
-0.0283759
-0.137168
-0.137168
0.0518684
0.0518684
-0.0547143
-0.0547144
-0.36482
-0.36482
0.0176246
0.0176246
0.150839
0.150839
-0.0544368
-0.0544369
-0.407572
-0.407572
-0.00184651
-0.00184648
0.12077
0.12077
-0.265693
-0.265693
-0.030406
-0.030406
-0.318349
-0.31835
-0.0449263
-0.0449264
0.0283732
0.0283731
0.395624
0.395624
0.319187
0.319187
0.0288585
0.0288584
-0.15426
-0.15426
-0.0358412
-0.0358414
-0.0339064
-0.0339066
0.0547175
0.0547171
-0.130085
-0.130085
-0.0413655
-0.0413654
-0.112816
-0.112816
-0.0212042
-0.0212042
-0.58541
-0.58541
-0.0433539
-0.0433539
0.687898
0.687898
0.0194483
0.0194483
-0.704026
-0.704026
-0.048721
-0.048721
0.556086
0.556086
0.0102894
0.0102895
-0.219697
-0.219697
-0.0906336
-0.0906336
0.103699
0.103699
0.00898664
0.00898675
-0.259979
-0.259979
-0.0505762
-0.0505761
0.154714
0.154714
0.0209516
0.0209518
-0.384083
-0.384082
-0.0642874
-0.0642873
0.296204
0.296204
0.0269884
0.0269887
-0.194271
-0.194271
0.025777
0.0257767
-0.0186334
-0.0186337
0.0297883
0.0297879
-0.268776
-0.268776
-0.0557263
-0.0557263
0.0638177
0.0638175
0.0115215
0.0115217
-0.382154
-0.382155
-0.0473898
-0.0473898
0.174263
0.174263
0.0205804
0.0205804
-0.100102
-0.100102
-0.26466
-0.26466
-0.0013146
-0.00131474
0.207239
0.207239
-0.264103
-0.264103
-0.0374568
-0.0374567
0.052523
0.0525227
0.0390111
0.0390113
-0.770626
-0.770626
-0.0518469
-0.0518469
0.937142
0.937142
0.0137213
0.0137212
-0.913667
-0.913667
0.794657
0.794657
-0.0445792
-0.0445792
0.0200254
0.0200254
-0.282502
-0.282502
-0.0362767
-0.0362768
0.0925121
0.0925117
0.0314678
0.0314679
-0.0778583
-0.0778583
-0.118189
-0.118189
-0.205645
-0.205645
-0.0464869
-0.0464869
0.0170083
0.0170083
0.175787
0.175787
0.240317
0.240317
-0.000518075
-0.000518181
-0.198285
-0.198285
-0.0767236
-0.0767239
-0.225753
-0.225753
-0.0287896
-0.0287897
0.027168
0.0271681
0.255388
0.255388
-0.289145
-0.289145
0.0517195
0.0517197
-0.0499158
-0.0499157
-0.00217509
-0.00217505
-0.0962271
-0.0962274
-0.150702
-0.150702
0.000805264
0.000804936
0.182169
0.182169
-0.340865
-0.340865
-0.0501171
-0.0501171
0.198765
0.198765
0.0356435
0.0356435
-0.0394613
-0.0394609
-0.0245455
-0.0245452
)
;

boundaryField
{
    frontAndBack
    {
        type            empty;
    }
    movingWall
    {
        type            zeroGradient;
    }
    fixedWalls
    {
        type            zeroGradient;
    }
}


// ************************************************************************* //
