/*--------------------------------*- C++ -*----------------------------------*\
| =========                 |                                                 |
| \\      /  F ield         | OpenFOAM: The Open Source CFD Toolbox           |
|  \\    /   O peration     | Version:  4.1                                   |
|   \\  /    A nd           | Web:      www.OpenFOAM.org                      |
|    \\/     M anipulation  |                                                 |
\*---------------------------------------------------------------------------*/
FoamFile
{
    version     2.0;
    format      ascii;
    class       surfaceScalarField;
    location    "0.1";
    object      phi;
}
// * * * * * * * * * * * * * * * * * * * * * * * * * * * * * * * * * * * * * //

dimensions      [0 3 -1 0 0 0 0];

internalField   nonuniform List<scalar> 
960
(
-1.48473e-13
-4.69773e-06
-4.28715e-06
8.98488e-06
-4.69774e-06
-4.28714e-06
8.98488e-06
-2.64494e-13
-1.65811e-05
1.65811e-05
-1.65811e-05
1.65811e-05
9.14551e-14
-8.85392e-08
8.8539e-08
-8.85395e-08
8.85387e-08
-7.3972e-14
-1.55382e-05
1.55382e-05
-1.55382e-05
1.55382e-05
-3.4552e-14
-1.0255e-07
1.0255e-07
-1.0255e-07
1.02549e-07
2.99601e-13
-1.65811e-05
-1.65811e-05
-1.21548e-13
-8.85395e-08
-8.85398e-08
3.34992e-13
-1.55382e-05
-1.55382e-05
-6.90366e-14
-1.02551e-07
-1.0255e-07
-1.00571e-12
5.50633e-06
-1.02041e-05
5.50632e-06
-1.02041e-05
8.98732e-14
1.0702e-05
-3.39132e-06
-7.31071e-06
1.0702e-05
-3.39132e-06
-7.3107e-06
-2.42483e-13
6.72456e-07
-4.11187e-06
3.43942e-06
6.72451e-07
-4.11187e-06
3.43942e-06
-3.79827e-13
4.14055e-06
2.90191e-06
-7.04246e-06
4.14054e-06
2.90191e-06
-7.04245e-06
-6.03586e-14
-5.59258e-06
9.28331e-06
-3.69072e-06
-5.59259e-06
9.28331e-06
-3.69072e-06
5.35638e-13
1.02314e-05
-5.36436e-06
-4.86709e-06
1.02314e-05
-5.36435e-06
-4.86709e-06
-3.01824e-13
6.30278e-06
2.35778e-06
-8.66056e-06
6.30278e-06
2.35778e-06
-8.66056e-06
5.94012e-13
2.08446e-06
8.14698e-06
2.08446e-06
8.14698e-06
-1.5008e-14
-1.57309e-06
7.87588e-06
-1.5731e-06
7.87588e-06
-1.70845e-13
2.82401e-06
7.87801e-06
2.82401e-06
7.87801e-06
-9.53378e-13
2.50022e-06
-1.82777e-06
2.50022e-06
-1.82777e-06
-7.9576e-14
-1.56204e-06
5.70259e-06
-1.56204e-06
5.70259e-06
-5.04307e-13
-1.23495e-05
6.75692e-06
-1.23495e-05
6.75692e-06
-2.00916e-12
-4.5729e-06
1.00792e-05
-4.5729e-06
1.00792e-05
1.64087e-13
5.14598e-06
-5.14598e-06
5.14598e-06
-5.14598e-06
-6.02648e-13
3.91463e-05
-3.91463e-05
3.91463e-05
-3.91463e-05
3.06246e-13
1.71399e-06
-1.71399e-06
1.71399e-06
-1.71399e-06
1.61336e-13
3.8174e-06
-3.8174e-06
3.8174e-06
-3.8174e-06
4.60924e-13
9.51693e-07
4.19429e-06
9.51692e-07
4.19429e-06
1.55288e-13
1.18031e-05
2.73432e-05
1.18031e-05
2.73432e-05
8.17221e-14
1.02029e-06
6.93698e-07
1.02029e-06
6.93698e-07
3.90213e-13
2.75498e-06
1.06242e-06
2.75498e-06
1.06242e-06
3.43656e-13
-5.68496e-06
-5.68497e-06
-7.67353e-13
-9.20752e-07
-9.20762e-07
1.99209e-13
-3.33182e-06
5.41629e-06
-3.33182e-06
5.41628e-06
-3.91546e-13
-6.72133e-06
2.14843e-06
-6.72133e-06
2.14843e-06
-1.32357e-12
5.94564e-06
4.13359e-06
5.94564e-06
4.13358e-06
-9.1961e-13
7.00649e-06
-4.64871e-06
7.00648e-06
-4.64871e-06
4.51906e-15
3.1054e-06
-8.46976e-06
3.1054e-06
-8.46976e-06
7.6113e-13
-8.25402e-06
9.20571e-06
-8.25402e-06
9.20571e-06
6.83442e-13
-4.0661e-06
1.58692e-05
-4.06609e-06
1.58692e-05
6.40184e-13
-8.61737e-07
1.88203e-06
-8.61736e-07
1.88203e-06
5.64709e-13
-2.88208e-08
2.7838e-06
-2.88215e-08
2.7838e-06
-3.04775e-14
-1.0742e-05
1.0742e-05
-1.0742e-05
1.0742e-05
-2.53476e-13
-6.8933e-07
6.89331e-07
-6.89329e-07
6.89329e-07
-1.61492e-13
-3.05515e-05
3.05515e-05
-3.05515e-05
3.05515e-05
2.94473e-14
-8.49106e-07
8.49106e-07
-8.49104e-07
8.49104e-07
5.18658e-13
9.78078e-06
-9.78078e-06
9.78077e-06
-9.78077e-06
8.10323e-13
3.18663e-05
-3.18663e-05
3.18663e-05
-3.18663e-05
8.99335e-13
7.15419e-07
-7.1542e-07
7.15418e-07
-7.15418e-07
6.44364e-13
8.27444e-07
-8.27445e-07
8.27443e-07
-8.27444e-07
2.06682e-14
-7.01023e-06
4.2388e-07
6.58635e-06
-7.01022e-06
4.23879e-07
6.58634e-06
-1.12582e-13
-9.82466e-06
4.42414e-06
5.40052e-06
-9.82466e-06
4.42414e-06
5.40051e-06
1.52047e-13
-4.54849e-06
-3.78776e-07
4.92727e-06
-4.54849e-06
-3.78775e-07
4.92726e-06
8.54347e-13
1.86877e-06
-1.30437e-05
1.1175e-05
1.86877e-06
-1.30437e-05
1.1175e-05
-4.7231e-13
-3.69903e-06
-3.3112e-06
-3.69903e-06
-3.31119e-06
-9.21984e-13
-1.29862e-05
3.16155e-06
-1.29862e-05
3.16155e-06
5.07317e-13
-5.04085e-07
-4.04441e-06
-5.04083e-07
-4.0444e-06
-3.5618e-15
1.41583e-05
-1.22895e-05
1.41583e-05
-1.22895e-05
-2.78235e-13
-1.96697e-06
-3.17901e-06
-1.96697e-06
-3.17902e-06
-6.93885e-13
-3.14055e-05
-7.74084e-06
-3.14055e-05
-7.74084e-06
-1.00893e-12
-1.03112e-06
-6.82872e-07
-1.03112e-06
-6.82873e-07
1.54683e-13
-4.11658e-06
2.99178e-07
-4.11658e-06
2.99176e-07
-5.57888e-14
1.59358e-05
-3.61923e-06
-1.23166e-05
1.59358e-05
-3.61923e-06
-1.23166e-05
-1.83762e-13
2.22267e-06
-1.86031e-06
-3.62359e-07
2.22266e-06
-1.86031e-06
-3.62359e-07
1.71868e-13
7.13246e-06
-1.13461e-05
4.21363e-06
7.13246e-06
-1.13461e-05
4.21363e-06
-2.40858e-13
2.39178e-06
-3.01878e-06
6.27002e-07
2.39177e-06
-3.01878e-06
6.27001e-07
8.66273e-13
-6.28598e-06
-1.8918e-06
8.17778e-06
-6.28598e-06
-1.8918e-06
8.17778e-06
5.05205e-13
-3.81749e-06
-6.92107e-06
1.07386e-05
-3.81749e-06
-6.92107e-06
1.07386e-05
5.10198e-13
-2.18082e-06
-2.14814e-06
4.32896e-06
-2.18082e-06
-2.14814e-06
4.32896e-06
1.03114e-12
-7.98698e-07
-8.7681e-06
9.5668e-06
-7.98695e-07
-8.7681e-06
9.56679e-06
5.52096e-13
4.73662e-06
-8.06844e-06
4.73661e-06
-8.06844e-06
-3.27813e-13
1.3799e-05
-7.58711e-06
-6.21189e-06
1.3799e-05
-7.58711e-06
-6.21188e-06
1.57933e-13
1.53898e-06
-8.26031e-06
1.53898e-06
-8.26031e-06
1.46773e-12
-9.49201e-06
3.87148e-06
5.62053e-06
-9.49202e-06
3.87149e-06
5.62053e-06
-3.36316e-13
7.0085e-06
-1.23006e-05
5.29209e-06
7.00849e-06
-1.23006e-05
5.29209e-06
-9.11573e-14
2.64043e-06
-2.52827e-06
-1.12159e-07
2.64042e-06
-2.52826e-06
-1.12161e-07
2.86169e-13
1.68605e-05
1.24252e-07
-1.69847e-05
1.68605e-05
1.24255e-07
-1.69847e-05
1.99284e-14
2.36717e-06
-2.14353e-06
-2.23641e-07
2.36717e-06
-2.14353e-06
-2.2364e-07
-1.03776e-12
3.72412e-06
1.00749e-05
3.72411e-06
1.00749e-05
-1.06154e-12
5.59345e-06
-8.56832e-07
5.59345e-06
-8.56833e-07
5.95146e-13
-1.39133e-06
-8.10068e-06
-1.39133e-06
-8.10068e-06
-1.34182e-12
5.39811e-06
-3.85913e-06
5.39811e-06
-3.85913e-06
-4.45418e-13
-2.0532e-06
-5.5339e-06
-2.05321e-06
-5.5339e-06
-1.50769e-12
-4.78907e-06
-4.78907e-06
-3.35621e-13
5.82267e-06
5.82267e-06
-2.96414e-12
-9.07622e-06
-9.07622e-06
-2.13859e-13
-3.14055e-05
-3.14055e-05
-4.20991e-13
-1.96697e-06
-1.96697e-06
-5.25248e-13
-1.03112e-06
-1.03112e-06
-3.40842e-13
-4.11658e-06
-4.11658e-06
-7.88685e-13
-3.46197e-06
-3.46197e-06
-6.09536e-13
-1.31727e-06
-1.31727e-06
-4.84295e-13
-3.74287e-06
-3.74286e-06
-4.45215e-13
-1.31482e-05
-1.31482e-05
1.46888e-13
-1.10451e-05
3.03118e-07
-1.10451e-05
3.03119e-07
1.2549e-13
-2.2533e-07
-4.64001e-07
-2.25329e-07
-4.64001e-07
2.64679e-13
-2.17932e-05
-8.75826e-06
-2.17932e-05
-8.75826e-06
3.85416e-13
-2.60609e-07
-5.88497e-07
-2.60609e-07
-5.88495e-07
3.41989e-13
9.82223e-06
-4.14562e-08
9.82223e-06
-4.14575e-08
5.58989e-13
2.28273e-05
9.03903e-06
2.28273e-05
9.03903e-06
2.61764e-13
2.45327e-07
4.70091e-07
2.45327e-07
4.70091e-07
-6.10094e-14
2.43654e-07
5.83789e-07
2.43654e-07
5.83788e-07
5.16325e-13
3.0643e-06
3.0643e-06
9.48467e-13
1.14326e-05
1.14326e-05
9.65939e-13
1.9884e-06
1.9884e-06
4.23942e-13
3.81672e-06
3.81672e-06
2.86157e-14
4.57189e-07
1.54786e-05
4.57186e-07
1.54786e-05
-4.34447e-14
1.97682e-06
2.45851e-07
1.97681e-06
2.45849e-07
7.67977e-13
1.1272e-05
-4.13957e-06
1.1272e-05
-4.13957e-06
-3.33162e-13
2.30624e-06
8.55321e-08
2.30624e-06
8.55323e-08
2.75926e-13
-1.10451e-05
-1.10451e-05
-1.79741e-13
-2.2533e-07
-2.2533e-07
5.80552e-14
-2.17932e-05
-2.17932e-05
5.84637e-13
-2.6061e-07
-2.60609e-07
-1.54171e-13
2.28273e-05
2.28273e-05
-3.40193e-13
9.82223e-06
9.82223e-06
-4.27481e-13
2.43653e-07
2.43653e-07
-2.73869e-13
2.45327e-07
2.45326e-07
-1.97625e-14
-5.07082e-06
-5.07082e-06
-3.06529e-13
-1.46619e-05
-1.46619e-05
8.30532e-15
-2.83101e-06
-2.83101e-06
4.81931e-13
-8.46892e-06
-8.46892e-06
-9.96824e-14
5.53597e-06
5.53597e-06
2.50415e-14
-1.36792e-07
-1.36792e-07
-2.12207e-13
-6.255e-06
-6.255e-06
1.30923e-13
-1.58061e-07
-1.5806e-07
-7.98434e-14
6.24617e-06
6.24617e-06
1.35459e-13
-5.71599e-06
-5.71599e-06
-5.00716e-13
1.55115e-07
1.55114e-07
-2.69627e-13
1.42777e-07
1.42776e-07
-8.3203e-13
-1.18434e-05
-1.18434e-05
-4.76807e-13
-5.5145e-07
-5.51449e-07
-1.18926e-13
1.13963e-05
1.13963e-05
-1.05182e-12
1.6271e-07
1.6271e-07
1.01747e-12
-4.08798e-06
-3.98046e-06
-4.08798e-06
-3.98046e-06
9.84541e-13
3.12177e-06
-9.33365e-06
3.12177e-06
-9.33365e-06
1.28571e-12
-9.18107e-06
-9.18107e-06
9.92482e-13
-6.44364e-08
-6.44342e-08
4.59203e-13
8.97447e-06
-7.96689e-07
8.97447e-06
-7.96689e-07
1.01011e-12
2.63534e-06
1.69362e-06
2.63534e-06
1.69362e-06
2.76522e-13
8.50326e-06
2.23531e-06
8.50325e-06
2.23531e-06
4.69756e-13
3.9826e-06
5.5842e-06
3.9826e-06
5.5842e-06
4.48854e-13
7.20449e-07
7.20448e-07
5.62847e-13
1.7736e-06
1.7736e-06
4.34679e-13
4.43716e-06
4.43716e-06
2.99697e-14
3.95378e-06
3.95378e-06
4.75913e-13
2.17218e-08
2.17206e-08
2.86267e-14
5.58648e-06
5.58649e-06
2.74455e-14
-2.34976e-07
-2.34976e-07
1.85845e-15
4.52307e-06
4.52306e-06
3.32916e-13
-6.93698e-07
-6.93697e-07
-4.91325e-13
-4.19429e-06
-4.19429e-06
-1.2283e-13
-1.06242e-06
-1.06242e-06
1.22135e-13
-2.73432e-05
-2.73432e-05
-1.03586e-13
5.32919e-06
2.52223e-05
5.32919e-06
2.52223e-05
1.02026e-13
-4.00058e-08
8.89112e-07
-4.00057e-08
8.89111e-07
4.32589e-13
1.67618e-05
1.67618e-05
5.61812e-13
3.0243e-06
3.0243e-06
2.4353e-14
8.94924e-08
5.99839e-07
8.94911e-08
5.99837e-07
-2.10353e-13
6.57277e-06
4.16924e-06
6.57277e-06
4.16924e-06
4.94123e-13
1.03895e-05
1.03895e-05
3.13403e-13
2.07789e-06
2.07789e-06
5.7461e-13
1.09998e-05
1.09998e-05
5.32539e-13
-1.8922e-06
-1.89221e-06
7.15459e-13
1.61461e-06
1.61461e-06
1.23093e-12
-2.42415e-06
-2.42415e-06
-2.77036e-13
-4.75567e-06
-4.57799e-06
-4.75566e-06
-4.57799e-06
-3.14457e-13
-8.84755e-06
-8.84755e-06
-7.30448e-13
-1.46928e-13
-9.03732e-14
-3.46617e-06
-3.46617e-06
-1.38603e-13
-7.00656e-07
-7.00656e-07
-1.86747e-13
-1.66816e-05
-1.66816e-05
-1.03941e-13
-6.87642e-07
-6.87641e-07
-2.50583e-13
1.54372e-05
1.54372e-05
-1.2486e-13
7.15941e-07
7.15939e-07
2.3715e-13
4.89946e-06
4.89946e-06
-2.04133e-13
6.6932e-07
6.69319e-07
-3.02356e-13
9.26209e-06
9.26209e-06
1.50321e-13
-1.89442e-06
-1.89442e-06
-1.3788e-12
-1.27669e-05
-1.27669e-05
-4.16676e-13
-4.89403e-06
-4.89403e-06
-5.86046e-13
-5.57515e-13
-3.34847e-13
-1.0185e-12
-1.05569e-12
-8.68185e-06
-8.68184e-06
-6.02706e-13
-3.86265e-06
-3.86264e-06
-3.91787e-13
-8.93219e-07
-8.93216e-07
-9.94202e-13
-3.8817e-06
-3.88169e-06
6.18413e-13
1.02031e-05
1.02031e-05
5.10207e-13
3.43104e-07
3.431e-07
6.32212e-13
3.30823e-06
3.30823e-06
7.9567e-13
3.16005e-06
3.16005e-06
-9.74457e-14
-1.75499e-07
1.02504e-05
-1.75498e-07
1.02504e-05
-9.87942e-14
-2.86425e-06
2.00741e-06
-2.86424e-06
2.00741e-06
5.56293e-13
-3.30939e-06
-4.79129e-06
-3.30939e-06
-4.79129e-06
-2.97066e-13
-4.84898e-06
9.89844e-07
-4.84897e-06
9.89842e-07
8.76912e-14
-1.0748e-05
-1.56853e-06
-1.0748e-05
-1.56853e-06
1.51738e-13
-2.21759e-06
1.85523e-06
-2.21759e-06
1.85523e-06
1.08613e-13
-1.47087e-06
5.68451e-06
-1.47087e-06
5.68451e-06
1.14754e-13
-2.26485e-06
2.89185e-06
-2.26485e-06
2.89185e-06
6.14235e-13
3.12438e-06
3.12438e-06
4.78799e-13
4.08325e-06
4.08325e-06
5.39398e-13
1.1844e-06
1.1844e-06
4.84635e-13
-1.97323e-06
-1.97323e-06
3.24194e-13
1.00276e-05
1.00276e-05
-3.43976e-14
4.43987e-07
4.43986e-07
5.77403e-13
-2.96629e-06
-2.96629e-06
-4.82447e-13
-1.68893e-06
-1.68893e-06
4.98359e-13
-9.72117e-06
-9.72117e-06
-2.90417e-15
-8.58718e-07
-8.58715e-07
6.72678e-14
-1.11456e-05
-1.11456e-05
1.87456e-13
-8.24434e-07
-8.24432e-07
3.69272e-13
1.73938e-13
-8.48453e-14
1.05516e-14
6.51891e-13
2.38195e-13
8.59867e-13
-2.7124e-13
-2.34384e-13
1.01119e-05
1.01119e-05
5.20655e-14
6.26782e-14
-6.18317e-06
-2.52223e-05
-6.18317e-06
-2.52223e-05
-1.19727e-14
-1.07786e-06
-8.89111e-07
-1.07786e-06
-8.89111e-07
-9.34565e-14
-4.31279e-07
-5.99838e-07
-4.3128e-07
-5.99837e-07
-3.36606e-13
5.26618e-08
-4.16924e-06
5.26614e-08
-4.16924e-06
4.15812e-13
1.04422e-05
1.04422e-05
3.23687e-13
1.64661e-06
1.64661e-06
3.61654e-13
1.05787e-05
1.05787e-05
7.07447e-13
1.94644e-06
1.94644e-06
-4.80148e-13
1.07471e-13
-3.93039e-13
-4.93728e-13
-5.92767e-13
-4.55753e-13
-2.06826e-13
-9.4725e-14
1.02716e-12
5.7857e-13
1.04106e-12
7.67308e-13
-2.04604e-13
-8.20462e-14
2.11132e-13
-1.05134e-13
-1.33484e-12
4.33617e-06
4.33617e-06
-7.69667e-13
)
;

boundaryField
{
    frontAndBack
    {
        type            empty;
        value           nonuniform 0();
    }
    movingWall
    {
        type            calculated;
        value           uniform 0;
    }
    fixedWalls
    {
        type            calculated;
        value           uniform 0;
    }
}


// ************************************************************************* //
