/*--------------------------------*- C++ -*----------------------------------*\
| =========                 |                                                 |
| \\      /  F ield         | OpenFOAM: The Open Source CFD Toolbox           |
|  \\    /   O peration     | Version:  4.1                                   |
|   \\  /    A nd           | Web:      www.OpenFOAM.org                      |
|    \\/     M anipulation  |                                                 |
\*---------------------------------------------------------------------------*/
FoamFile
{
    version     2.0;
    format      ascii;
    class       volVectorField;
    location    "0.1";
    object      U;
}
// * * * * * * * * * * * * * * * * * * * * * * * * * * * * * * * * * * * * * //

dimensions      [0 1 -1 0 0 0 0];

internalField   nonuniform List<vector> 
500
(
(-0.195674 -0.0886366 5.31197e-09)
(-0.195674 -0.0886364 -5.31197e-09)
(0.123102 -0.171571 -0.29671)
(0.123102 -0.171571 0.29671)
(-0.000334335 -0.000719218 -0.00136699)
(-0.000334342 -0.000719235 0.00136699)
(0.368514 0.0545739 0.217999)
(0.368514 0.0545739 -0.217999)
(-0.000851946 0.000488169 0.00447998)
(-0.000851921 0.000488161 -0.00447998)
(0.380266 -0.0544236 -0.246151)
(0.380266 -0.0544236 0.246151)
(-0.000752235 -0.000326889 -0.00154655)
(-0.000752231 -0.00032688 0.00154655)
(0.0978157 0.167973 0.268023)
(0.0978157 0.167973 -0.268023)
(-0.000491043 0.00084767 0.00427398)
(-0.000491036 0.000847694 -0.00427398)
(-0.186979 -0.0987215 0.000556488)
(-0.186979 -0.0987216 -0.000556488)
(-0.135426 0.126614 0.0100609)
(-0.135426 0.126614 -0.0100609)
(-0.11355 0.0525643 0.0161811)
(-0.11355 0.0525643 -0.0161811)
(-0.139369 -0.0199517 -0.000432013)
(-0.139369 -0.0199516 0.000432013)
(-0.172514 -0.18423 -0.00524888)
(-0.172514 -0.18423 0.00524888)
(-0.177967 0.0415307 0.0034421)
(-0.177967 0.0415307 -0.0034421)
(-0.198441 -0.00871504 0.00870951)
(-0.198441 -0.00871505 -0.00870951)
(-0.170658 0.0747172 0.00607548)
(-0.170658 0.0747172 -0.00607548)
(-0.182581 0.0174663 0.0106966)
(-0.182582 0.0174663 -0.0106966)
(-0.121262 0.150881 0.0115346)
(-0.121262 0.150881 -0.0115346)
(-0.0481042 0.0351361 0.0109748)
(-0.0481043 0.0351361 -0.0109748)
(-0.124427 -0.0123814 -0.000388772)
(-0.124427 -0.0123814 0.000388772)
(-0.156835 -0.198733 -0.0074366)
(-0.156835 -0.198733 0.0074366)
(-0.172944 -0.05748 -0.000108292)
(-0.172944 -0.0574798 0.000108292)
(-0.0162196 0.079365 0.0188179)
(-0.0162196 0.0793649 -0.0188179)
(0.777857 -0.000651343 0.00394588)
(0.777857 -0.00065132 -0.00394588)
(-0.0246141 0.00137316 0.00280063)
(-0.024614 0.00137314 -0.00280063)
(-0.0150575 -0.053601 -0.00507091)
(-0.0150576 -0.0536009 0.00507091)
(-0.02935 0.136429 0.0226863)
(-0.02935 0.136429 -0.0226863)
(0.657188 -0.0179547 -0.00540788)
(0.657188 -0.0179547 0.00540788)
(-0.0334559 0.00315606 0.00489806)
(-0.0334559 0.00315606 -0.00489806)
(-0.0197777 -0.0620251 -0.000547839)
(-0.0197776 -0.0620251 0.000547839)
(-0.161025 0.00563697 0.00720934)
(-0.161025 0.00563692 -0.00720934)
(-0.180304 -0.124561 -0.000854085)
(-0.180304 -0.124561 0.000854085)
(-0.152588 0.073644 0.004665)
(-0.152588 0.073644 -0.004665)
(-0.15987 -0.0651082 0.000291643)
(-0.15987 -0.0651081 -0.000291643)
(-0.176459 -0.0311816 0.00164328)
(-0.176459 -0.0311814 -0.00164328)
(-0.200983 0.00158617 0.00519735)
(-0.200983 0.00158619 -0.00519735)
(-0.188056 0.0318413 0.00307157)
(-0.188056 0.0318414 -0.00307157)
(-0.0584651 0.207647 0.0240266)
(-0.0584651 0.207647 -0.0240266)
(0.422753 -0.0516312 -0.00273068)
(0.422753 -0.0516312 0.00273068)
(-0.0519601 0.00627745 0.00356688)
(-0.0519599 0.00627748 -0.00356688)
(-0.0301254 -0.0871517 -0.00103054)
(-0.0301254 -0.0871516 0.00103054)
(-0.0259154 -0.18725 -0.059465)
(-0.0259154 -0.18725 0.059465)
(-0.00961446 -0.00352928 -0.00264072)
(-0.00961448 -0.0035293 0.00264072)
(0.702288 0.0404112 0.0431205)
(0.702288 0.0404112 -0.0431205)
(-0.00539684 0.0117971 0.00343496)
(-0.00539683 0.0117972 -0.00343496)
(-0.0218447 0.166334 0.0591647)
(-0.0218448 0.166334 -0.0591647)
(0.713782 -0.0311067 -0.0377953)
(0.713782 -0.0311066 0.0377953)
(-0.0101442 0.00344364 0.00541841)
(-0.0101442 0.00344362 -0.00541841)
(-0.00543605 -0.0116152 -0.000239958)
(-0.00543601 -0.0116152 0.000239958)
(-0.0696503 0.0900487 0.00807693)
(-0.0696502 0.0900487 -0.00807693)
(0.0223633 0.151646 0.0381703)
(0.0223632 0.151646 -0.0381703)
(-0.0830106 -0.031947 -0.00424792)
(-0.0830105 -0.031947 0.00424792)
(-0.145736 -0.289291 -0.0276333)
(-0.145736 -0.289291 0.0276333)
(-0.0846084 0.0769704 0.00569906)
(-0.0846083 0.0769704 -0.00569906)
(-0.0707085 0.192282 0.0404117)
(-0.0707086 0.192282 -0.0404117)
(-0.0900985 -0.0438104 -0.00342002)
(-0.0900984 -0.0438103 0.00342002)
(-0.147732 -0.261918 -0.0223216)
(-0.147732 -0.261918 0.0223216)
(-0.0218647 0.0915887 0.0118181)
(-0.0218647 0.0915887 -0.0118181)
(0.65424 0.00816176 0.0153994)
(0.65424 0.00816175 -0.0153994)
(-0.0375475 -0.000118143 0.00062129)
(-0.0375475 -0.000118119 -0.00062129)
(-0.024708 -0.105285 -0.00700156)
(-0.024708 -0.105285 0.00700156)
(-0.0916448 0.308988 0.0483825)
(-0.0916448 0.308988 -0.0483825)
(-0.050222 0.0188511 0.00539389)
(-0.0502219 0.0188511 -0.00539389)
(0.167054 -0.12646 -0.0358544)
(0.167054 -0.12646 0.0358544)
(-0.0368368 -0.0581028 -0.0011277)
(-0.0368368 -0.0581027 0.0011277)
(-0.0685354 0.169879 0.016911)
(-0.0685354 0.169879 -0.016911)
(0.22945 0.0239805 0.00201774)
(0.22945 0.0239804 -0.00201774)
(-0.0821326 0.000543881 0.00189661)
(-0.0821324 0.000543932 -0.00189661)
(-0.0832682 -0.179841 -0.00998179)
(-0.0832683 -0.179841 0.00998179)
(-0.133006 0.0485533 0.00540843)
(-0.133005 0.0485533 -0.00540843)
(-0.173047 0.17969 0.0211358)
(-0.173047 0.17969 -0.0211358)
(-0.143626 -0.0995844 -0.00610786)
(-0.143626 -0.0995843 0.00610786)
(-0.142188 -0.0971339 -0.00524811)
(-0.142188 -0.0971339 0.00524811)
(0.0691772 0.21639 0.0551878)
(0.0691771 0.21639 -0.0551878)
(-0.0302631 0.0380653 0.00626999)
(-0.030263 0.0380653 -0.00626999)
(-0.111301 -0.350209 -0.0669023)
(-0.111302 -0.350209 0.0669023)
(-0.0366098 -0.023057 -0.00231238)
(-0.0366097 -0.023057 0.00231238)
(-0.154539 0.206386 0.0263597)
(-0.154539 0.206386 -0.0263597)
(-0.113634 0.0533086 0.00462825)
(-0.113634 0.0533085 -0.00462825)
(-0.125769 -0.139579 -0.00437881)
(-0.125769 -0.139579 0.00437881)
(-0.116003 -0.0896665 -0.00268098)
(-0.116003 -0.0896665 0.00268098)
(-0.187515 0.114762 0.0117533)
(-0.187515 0.114762 -0.0117533)
(-0.192276 -0.0889906 0.000622827)
(-0.192276 -0.0889908 -0.000622827)
(-0.179534 0.0987165 0.0118313)
(-0.179534 0.0987165 -0.0118313)
(-0.198944 -0.115241 -0.00331368)
(-0.198944 -0.115241 0.00331368)
(0.833624 0.00428773 0.00899974)
(0.833624 0.0042878 -0.00899974)
(-0.00805731 0.0376594 0.00726408)
(-0.00805733 0.0376594 -0.00726408)
(-0.0176447 -0.00091702 0.000443169)
(-0.0176447 -0.000917043 -0.000443169)
(-0.0118939 -0.0665533 -0.00852734)
(-0.0118939 -0.0665532 0.00852734)
(-0.097684 0.145151 0.00855484)
(-0.0976839 0.145151 -0.00855484)
(0.0411527 0.0483783 0.0157899)
(0.0411526 0.0483782 -0.0157899)
(-0.104043 -0.0132254 0.00172396)
(-0.104043 -0.0132253 -0.00172396)
(-0.13625 -0.225606 -0.012067)
(-0.13625 -0.225606 0.012067)
(-0.0502844 -0.297661 -0.0776896)
(-0.0502844 -0.297661 0.0776896)
(-0.0107862 -0.0049756 -0.00341247)
(-0.0107862 -0.00497557 0.00341247)
(0.49168 0.086664 0.0554955)
(0.49168 0.086664 -0.0554955)
(-0.00686247 0.0125826 0.00253642)
(-0.00686242 0.0125826 -0.00253642)
(-0.0443059 0.264484 0.0738157)
(-0.0443059 0.264484 -0.0738157)
(0.521221 -0.075958 -0.0539626)
(0.521221 -0.075958 0.0539626)
(-0.0113049 0.00488198 0.00605724)
(-0.0113049 0.00488197 -0.00605724)
(-0.00674126 -0.0119135 0.000512988)
(-0.00674121 -0.0119135 -0.000512988)
(-0.0365162 0.0608064 0.00474665)
(-0.0365162 0.0608064 -0.00474665)
(0.151519 0.133631 0.0548533)
(0.151519 0.133631 -0.0548533)
(-0.0509867 -0.0212827 -0.00254839)
(-0.0509867 -0.0212827 0.00254839)
(-0.108424 -0.335461 -0.0442671)
(-0.108424 -0.335461 0.0442671)
(-0.103277 0.323044 0.0688134)
(-0.103277 0.323044 -0.0688134)
(-0.0364864 0.0215963 0.00568296)
(-0.0364863 0.0215963 -0.00568296)
(0.0912347 -0.209704 -0.0449604)
(0.0912347 -0.209704 0.0449604)
(-0.0292496 -0.037089 -0.00226262)
(-0.0292496 -0.037089 0.00226262)
(-0.00618674 -0.227435 -0.109546)
(-0.00618676 -0.227435 0.109546)
(-0.00242203 -0.00165514 -0.00218295)
(-0.00242202 -0.00165512 0.00218295)
(0.638536 0.0388042 0.0686256)
(0.638536 0.0388041 -0.0686256)
(-0.00205607 0.00294057 0.00282285)
(-0.00205603 0.00294058 -0.00282285)
(0.657782 -0.0347528 -0.0758847)
(0.657782 -0.0347528 0.0758847)
(-0.0090296 0.203702 0.0993433)
(-0.00902959 0.203702 -0.0993433)
(-0.00201481 -0.00263554 -0.000294181)
(-0.00201481 -0.00263553 0.000294181)
(-0.00276817 0.00171748 0.00460565)
(-0.00276816 0.00171751 -0.00460565)
(-0.038979 0.131525 0.0115847)
(-0.038979 0.131525 -0.0115847)
(0.380583 0.0355904 0.0147467)
(0.380583 0.0355905 -0.0147467)
(-0.0646087 -0.000840363 0.00130182)
(-0.0646087 -0.000840411 -0.00130182)
(-0.0580659 -0.177014 -0.0124309)
(-0.0580658 -0.177014 0.0124309)
(-0.0125745 -0.401755 -0.168217)
(-0.0125745 -0.401755 0.168217)
(-0.00352963 -0.00229705 -0.00263978)
(-0.00352961 -0.00229706 0.00263978)
(0.268026 0.108695 0.118869)
(0.268026 0.108695 -0.118869)
(-0.00253758 0.00398475 0.00379255)
(-0.00253758 0.00398474 -0.00379255)
(0.29962 -0.108278 -0.132477)
(0.29962 -0.108278 0.132477)
(-0.0243554 0.371187 0.153619)
(-0.0243554 0.371187 -0.153619)
(-0.00244425 -0.00358199 -0.000553694)
(-0.00244425 -0.00358201 0.000553694)
(-0.00393645 0.00251742 0.00581207)
(-0.00393642 0.0025174 -0.00581207)
(-0.0614851 0.266517 0.0529823)
(-0.0614852 0.266517 -0.0529823)
(-0.0445807 0.0382488 0.00530639)
(-0.0445807 0.0382487 -0.00530639)
(-0.0655891 -0.274988 -0.0487039)
(-0.0655891 -0.274987 0.0487039)
(-0.0443766 -0.0381077 -0.00202408)
(-0.0443766 -0.0381077 0.00202408)
(-0.138522 0.0292535 0.00438773)
(-0.138522 0.0292535 -0.00438773)
(-0.163126 0.174848 0.0169004)
(-0.163126 0.174848 -0.0169004)
(-0.151656 -0.122405 -0.00617714)
(-0.151656 -0.122405 0.00617714)
(-0.125415 -0.0457785 -0.00275036)
(-0.125415 -0.0457785 0.00275036)
(-0.0865775 0.196803 0.0175595)
(-0.0865775 0.196803 -0.0175595)
(-0.084454 0.00702118 0.00261029)
(-0.0844539 0.00702118 -0.00261029)
(0.199028 -0.00326378 0.00270538)
(0.199028 -0.00326376 -0.00270538)
(-0.0838912 -0.15953 -0.00999473)
(-0.0838911 -0.15953 0.00999473)
(-0.0773753 0.219274 0.0160082)
(-0.0773754 0.219274 -0.0160082)
(-0.0693226 0.0103427 0.00232975)
(-0.0693225 0.0103426 -0.00232975)
(0.270678 -0.0376214 0.0112561)
(0.270678 -0.0376214 -0.0112561)
(-0.0522443 -0.121018 -0.00426005)
(-0.0522442 -0.121018 0.00426005)
(-0.0415597 0.0108411 0.00565794)
(-0.0415598 0.0108412 -0.00565794)
(-0.0614199 0.259674 0.0377137)
(-0.0614199 0.259675 -0.0377137)
(-0.0246483 -0.0545215 -0.00182229)
(-0.0246483 -0.0545216 0.00182229)
(0.373274 -0.0571449 -0.015579)
(0.373274 -0.0571449 0.015579)
(-0.0219527 0.00578878 0.00587347)
(-0.0219527 0.00578882 -0.00587347)
(-0.0372828 0.200242 0.0439043)
(-0.0372828 0.200242 -0.0439043)
(-0.0105117 -0.0286476 0.000199221)
(-0.0105117 -0.0286475 -0.000199221)
(0.613402 -0.0347687 -0.0129505)
(0.613402 -0.0347687 0.0129505)
(0.604363 0.0414297 0.0271566)
(0.604363 0.0414297 -0.0271566)
(-0.00975847 0.0285999 0.00308569)
(-0.00975845 0.0285998 -0.00308569)
(0.352502 0.0639607 0.0321667)
(0.352502 0.0639607 -0.0321667)
(-0.0234464 0.0580682 0.00452944)
(-0.0234463 0.0580682 -0.00452944)
(-0.0213236 -0.00583191 -0.00287923)
(-0.0213235 -0.00583192 0.00287923)
(-0.0453709 -0.219962 -0.0402225)
(-0.0453709 -0.219962 0.0402225)
(-0.0754625 -0.281582 -0.0322013)
(-0.0754625 -0.281582 0.0322013)
(-0.0432503 -0.0119704 -0.00290884)
(-0.0432503 -0.0119704 0.00290884)
(-0.1436 0.189618 0.0163455)
(-0.1436 0.189618 -0.0163455)
(-0.0466086 -0.028091 0.00348359)
(-0.0466088 -0.028091 -0.00348359)
(-0.123465 0.0156403 0.00361901)
(-0.123465 0.0156403 -0.00361901)
(-0.131775 -0.152234 -0.0052794)
(-0.131775 -0.152234 0.0052794)
(-0.175944 0.124766 0.012841)
(-0.175944 0.124766 -0.012841)
(-0.162215 0.0151924 0.00435197)
(-0.162215 0.0151925 -0.00435197)
(-0.16523 0.116877 0.0113673)
(-0.16523 0.116877 -0.0113673)
(-0.163146 -0.00604969 0.00207751)
(-0.163146 -0.0060497 -0.00207751)
(0.145964 0.204917 0.0571154)
(0.145964 0.204917 -0.0571154)
(-0.0159466 0.0230656 0.004224)
(-0.0159466 0.0230655 -0.004224)
(-0.0966766 -0.362312 -0.0667707)
(-0.0966766 -0.362312 0.0667707)
(-0.0214075 -0.0128454 -0.00189481)
(-0.0214075 -0.0128454 0.00189481)
(-0.0932726 0.330784 0.0679621)
(-0.0932726 0.330784 -0.0679621)
(-0.0218116 0.012551 0.00469063)
(-0.0218115 0.012551 -0.00469063)
(0.178371 -0.202866 -0.0534844)
(0.178371 -0.202866 0.0534844)
(-0.015628 -0.0221508 -0.000990594)
(-0.0156279 -0.0221508 0.000990594)
(-0.146347 0.117911 0.0226258)
(-0.146347 0.117911 -0.0226258)
(-0.13095 0.0989134 0.0089645)
(-0.13095 0.0989133 -0.0089645)
(-0.182238 -0.184802 -0.0107272)
(-0.182239 -0.184802 0.0107272)
(-0.136555 -0.043915 -0.000925305)
(-0.136555 -0.043915 0.000925305)
(-0.126166 0.177253 0.0293522)
(-0.126166 0.177253 -0.0293522)
(-0.106678 0.0831055 0.00547775)
(-0.106678 0.0831054 -0.00547775)
(-0.166471 -0.206969 -0.0175886)
(-0.166471 -0.206968 0.0175886)
(-0.1143 -0.0544779 -0.00229106)
(-0.1143 -0.0544778 0.00229106)
(-0.0945883 0.253886 0.0400664)
(-0.0945883 0.253886 -0.0400664)
(-0.0690314 0.0511772 0.00669963)
(-0.0690313 0.0511772 -0.00669963)
(-0.100782 -0.251391 -0.0308822)
(-0.100782 -0.251391 0.0308822)
(-0.0681492 -0.0532434 -0.00281311)
(-0.0681492 -0.0532434 0.00281311)
(-0.130375 0.212098 0.0160718)
(-0.130375 0.212098 -0.0160718)
(0.0335691 -0.0399879 -0.00207213)
(0.0335691 -0.0399879 0.00207213)
(-0.105445 0.0160661 0.00153761)
(-0.105445 0.0160661 -0.00153761)
(-0.11192 -0.146901 -0.00239216)
(-0.111921 -0.146901 0.00239216)
(-0.141288 0.2391 0.0213263)
(-0.141288 0.2391 -0.0213263)
(-0.0986717 0.0431833 0.00435361)
(-0.0986716 0.0431834 -0.00435361)
(-0.0679373 -0.144943 -0.00502702)
(-0.0679374 -0.144943 0.00502702)
(-0.0977798 -0.0908692 -0.000898752)
(-0.0977798 -0.0908691 0.000898752)
(-0.114614 0.290405 0.02949)
(-0.114614 0.290405 -0.02949)
(-0.0676344 0.0262124 0.00367692)
(-0.0676344 0.0262124 -0.00367692)
(0.0752811 -0.140906 -0.0135506)
(0.0752811 -0.140906 0.0135506)
(-0.0545228 -0.0757332 -0.00159758)
(-0.0545227 -0.0757332 0.00159758)
(-0.0722948 0.114343 0.0101843)
(-0.0722948 0.114343 -0.0101843)
(0.0922557 0.0806256 0.0270455)
(0.0922557 0.0806256 -0.0270455)
(-0.0899074 -0.0192969 0.000133973)
(-0.0899073 -0.0192969 -0.000133973)
(-0.124183 -0.262207 -0.0211948)
(-0.124183 -0.262207 0.0211948)
(-0.127019 0.246105 0.0205701)
(-0.127019 0.246105 -0.0205701)
(-0.094311 0.0264203 0.0029166)
(-0.0943109 0.0264202 -0.0029166)
(0.0347619 -0.0884869 -0.00408921)
(0.0347617 -0.0884869 0.00408921)
(-0.0901477 -0.115372 -0.00303772)
(-0.0901475 -0.115372 0.00303772)
(0.0502881 0.252643 0.0747208)
(0.0502881 0.252643 -0.0747208)
(-0.0106681 0.0126436 0.00503032)
(-0.010668 0.0126436 -0.00503032)
(-0.0580793 -0.353528 -0.0909073)
(-0.0580794 -0.353528 0.0909073)
(-0.0123282 -0.0093788 -0.00133128)
(-0.0123282 -0.00937879 0.00133128)
(-0.0724138 0.328561 0.0884925)
(-0.0724138 0.328561 -0.0884925)
(0.0804595 -0.262905 -0.0770175)
(0.0804595 -0.262905 0.0770175)
(-0.0129558 0.00970436 0.00431772)
(-0.0129558 0.00970432 -0.00431772)
(-0.0103001 -0.011971 -0.00193956)
(-0.0103 -0.011971 0.00193956)
(-0.110921 0.258907 0.0216578)
(-0.110921 0.258907 -0.0216578)
(-0.0824908 0.0226662 0.00278)
(-0.0824908 0.0226663 -0.00278)
(0.0913077 -0.0804265 -0.00709012)
(0.0913077 -0.0804266 0.00709012)
(-0.0722271 -0.108628 -0.00241174)
(-0.0722271 -0.108628 0.00241174)
(-0.200111 0.0486047 0.00804057)
(-0.200111 0.0486046 -0.00804057)
(-0.193009 0.0940553 0.012098)
(-0.193009 0.0940553 -0.012098)
(0.693414 0.0213526 0.0189825)
(0.693413 0.0213526 -0.0189825)
(-0.00876918 0.0467788 0.00431216)
(-0.00876918 0.0467788 -0.00431216)
(-0.0278273 -0.0014538 -0.00157795)
(-0.0278272 -0.00145381 0.00157795)
(-0.0244517 -0.137317 -0.0163002)
(-0.0244517 -0.137317 0.0163002)
(-0.0598749 -0.23027 -0.0220885)
(-0.0598748 -0.23027 0.0220885)
(-0.0498294 -0.00634194 4.75942e-05)
(-0.0498293 -0.00634197 -4.75942e-05)
(0.421342 0.0488208 0.0182441)
(0.421342 0.0488208 -0.0182441)
(-0.0222743 0.0769358 0.00704808)
(-0.0222743 0.0769357 -0.00704808)
(0.853757 0.0125746 0.0156742)
(0.853757 0.0125747 -0.0156742)
(-0.00309234 0.016142 0.00199399)
(-0.00309235 0.016142 -0.00199399)
(-0.0105141 -0.00113112 -0.00188162)
(-0.0105141 -0.00113114 0.00188162)
(-0.0124061 -0.0813667 -0.0176942)
(-0.0124061 -0.0813667 0.0176942)
(-0.0115834 0.0789684 0.022594)
(-0.0115835 0.0789684 -0.022594)
(0.848359 -0.00806363 -0.00404576)
(0.848359 -0.00806359 0.00404576)
(-0.011514 0.00192354 0.00389981)
(-0.011514 0.00192352 -0.00389981)
(-0.00580273 -0.0181921 0.000169937)
(-0.00580272 -0.0181921 -0.000169937)
(-0.0396535 0.104557 0.00914546)
(-0.0396534 0.104557 -0.00914546)
(0.308397 0.0495182 0.014273)
(0.308397 0.0495182 -0.014273)
(-0.0660918 -0.00854182 -7.66185e-05)
(-0.0660917 -0.0085418 7.66185e-05)
(-0.0793028 -0.234466 -0.0172654)
(-0.0793029 -0.234465 0.0172654)
(-0.120415 0.266874 0.0269501)
(-0.120415 0.266874 -0.0269501)
(-0.0784901 0.0415857 0.0039683)
(-0.0784901 0.0415858 -0.0039683)
(-0.0495175 -0.183976 -0.0157527)
(-0.0495175 -0.183976 0.0157527)
(-0.0730755 -0.0708358 -0.00282225)
(-0.0730755 -0.0708358 0.00282225)
(-0.198451 -0.0305449 0.00383583)
(-0.198451 -0.0305449 -0.00383583)
(-0.188097 -0.00711006 0.00223049)
(-0.188097 -0.00711008 -0.00223049)
)
;

boundaryField
{
    frontAndBack
    {
        type            empty;
    }
    movingWall
    {
        type            fixedValue;
        value           uniform (1 0 0);
    }
    fixedWalls
    {
        type            noSlip;
    }
}


// ************************************************************************* //
