/*--------------------------------*- C++ -*----------------------------------*\
| =========                 |                                                 |
| \\      /  F ield         | OpenFOAM: The Open Source CFD Toolbox           |
|  \\    /   O peration     | Version:  4.1                                   |
|   \\  /    A nd           | Web:      www.OpenFOAM.org                      |
|    \\/     M anipulation  |                                                 |
\*---------------------------------------------------------------------------*/
FoamFile
{
    version     2.0;
    format      ascii;
    class       volScalarField;
    location    "8";
    object      T;
}
// * * * * * * * * * * * * * * * * * * * * * * * * * * * * * * * * * * * * * //

dimensions      [0 0 0 1 0 0 0];

internalField   nonuniform List<scalar> 
26625
(
1.1866e-08
-0.00116232
1.40212
0.941063
3.84368e-10
1.18601e-07
0.000111214
4.04364e-08
0.0993777
1.3543
3.66643e-15
0.182936
-3.84927e-09
0.0309729
1.35454
-6.95878e-10
0.00364555
1.48318
1.59841
0.7723
-6.97411e-07
5.27735e-05
2.18701e-15
0.0183734
-5.70246e-08
1.2704
0.107878
0.00141084
3.58126e-08
0.0476041
1.54509
1.00372
0.096394
0.971109
7.27565e-12
1.51606e-12
0.000122778
1.43264
0.00652123
0.00154824
0.00414816
1.4591
0.0501546
0.254326
3.10186e-07
0.421339
0.000398849
1.59142
0.000580508
-5.1625e-14
0.904587
0.996653
0.340252
-3.74558e-08
0.992256
0.0674092
0.281166
0.753674
4.61551e-05
1.48873
-2.64961e-20
-1.03671e-09
1.27178e-10
0.0282602
1.41243
3.13948e-17
0.43409
1.54201
-0.0194514
0.0644067
1.43012
-6.69643e-13
-0.0104937
5.15376e-11
3.52516e-16
0.178939
5.39082e-13
7.87067e-19
0.938951
1.64601
0.94741
0.00351457
0.218738
1.06092
0.0497777
1.5576
-4.32962e-11
1.63177e-18
0.000424395
0.144942
1.97165
1.46746
0.130386
0.0673474
0.741118
0.212982
1.0039
1.19611
0.120817
0.975874
0.644397
1.52795
1.51541
1.3952
2.97971e-08
1.03768
-1.17888e-16
1.38888
0.970572
-1.60304e-08
0.708078
2.64078e-05
0.0766173
1.38413
1.37544
1.51331
7.12092e-14
-1.00333e-11
0.00157185
1.46894
1.40832
1.17582
-2.81781e-16
9.57648e-05
-6.57928e-06
1.48733
0.912434
2.05996e-19
0.578381
1.16224
1.42326
0.703007
0.100981
-1.34145e-07
-3.88726e-06
0.156817
0.0436187
-4.89537e-18
0.346096
-3.41343e-06
1.17718
1.21504
-3.24233e-06
0.0193056
1.59686
0.838476
1.10677
1.5695
0.00830265
9.55358e-19
0.631757
1.01782
1.21367
0.00103694
-5.55299e-20
0.644665
0.875088
1.49359
0.986691
1.52747
0.00213511
1.0405
0.891099
1.21602
8.17337e-15
-4.28653e-07
1.56224
0.873802
0.000363707
3.5175e-14
0.332822
2.40252e-14
0.00265453
0.316164
1.93766e-19
1.4933
0.855125
0.00231968
1.31865
9.65863e-15
-4.56304e-05
2.49465e-06
-6.23502e-15
0.929285
0.00564615
0.858017
0.0132709
0.953134
1.62128
0.738441
0.294202
0.866481
0.78774
1.45235
0.349596
6.14361e-10
0.895846
-1.59328e-05
1.50795
2.58814e-12
0.000242853
1.46679
9.20815e-14
0.007194
-7.54281e-14
0.634354
1.79675
1.4918
1.87816e-05
0.513735
5.73119e-16
0.756511
-1.35673e-09
1.02513
-2.27223e-07
0.850076
-0.0247316
0.000596131
0.00443243
0.989588
1.46759
1.94206e-15
5.2246e-16
0.000150614
0.0110695
1.46811
9.52229e-12
0.875524
0.0140982
0.0546865
1.36028
0.00497924
1.42634
0.0047301
6.42891e-15
0.00863899
1.00008
0.0123002
6.4482e-15
0.570301
0.393573
0.781925
1.10054
4.46907e-14
1.0723
0.0211606
0.000184675
5.6821e-13
1.08519e-15
0.634287
1.57005
0.00055024
3.65368e-07
0.54924
0.00140385
9.87706e-05
-7.9828e-18
1.24674e-07
0.0172555
0.68138
-8.55666e-09
1.72133
0.371063
0.0176409
1.36695
1.28012
-1.85026e-13
5.27646e-11
5.02736e-05
1.1849
0.0283633
1.51579
1.26811
0.0131939
0.361066
-8.687e-17
0.394557
0.751659
0.507689
0.000821761
0.000236809
1.13886e-15
0.559055
0.643967
0.546008
1.38049e-13
0.965793
-8.947e-10
1.51985
4.51852e-05
-1.40043e-15
-3.2364e-06
1.27769
0.148527
0.157237
3.0904e-18
-1.96032e-19
0.615289
-2.39703e-13
1.427
0.86065
5.65266e-08
1.4608
1.81409e-09
0.0857381
7.18994e-20
1.51121e-12
1.11869e-06
1.25169e-17
7.11859e-05
2.56753e-05
-1.19849e-22
-2.60416e-18
0.833093
0.523148
0.08453
0.0565164
-0.000102073
1.5266
0.193443
-8.05172e-20
0.0537165
0.000283747
9.27288e-05
2.66134e-18
0.0366227
0.835583
1.54209
0.0162685
0.00829534
-0.0837407
-3.03131e-07
0.892755
1.21318
0.571721
0.000124175
0.59823
0.00053077
8.7e-20
0.82731
1.64965
0.61172
0.969526
0.0122868
0.304675
0.864997
0.724015
0.101963
0.000116105
0.00013406
1.52246
0.00122028
0.00762728
1.69453
0.0138308
0.710384
0.264676
1.57992
1.1719
1.63146
1.04279
-1.02535e-14
-0.010102
0.00112769
1.47922
0.114995
0.0594608
1.65015
1.03339
0.0403152
1.57985
1.40826
0.109679
-4.13553e-14
-1.93224e-08
0.961205
0.0412347
-2.46537e-17
2.21191e-18
1.30829
1.02472
0.901933
0.362872
0.213023
0.061446
-0.0417153
1.00767
0.0206
0.00171889
0.00764848
-6.05793e-17
1.93586e-08
0.00523725
1.25094
0.00428993
1.4147
1.3943
0.00536971
0.855176
0.610379
0.832172
1.03127
1.0599
2.77498e-13
1.00178e-09
0.016853
1.27039
-2.26352e-06
6.46007e-05
0.837089
0.677239
1.60314
-5.18889e-10
-9.41836e-14
0.0216256
0.972711
0.0872068
0.869851
1.11763
1.12625e-11
6.18421e-17
1.48019e-10
1.44973
1.07398
2.32683e-05
3.87651e-07
0.975658
0.0067933
5.51154e-14
0.166071
1.44213
0.572153
0.00636114
2.20676e-13
1.0877
0.7984
2.19178e-16
0.0311196
8.27127e-06
1.30861
0.0423136
-1.06259e-12
0.341724
0.652186
0.961832
3.79594e-05
4.18469e-20
1.03689
0.000855637
1.01588
-0.0387616
0.821996
-1.27907e-14
1.073
2.26076e-05
6.00571e-05
0.0214716
-2.13382e-15
1.12833e-07
1.33868
0.529678
1.55493
3.04042e-07
0.62108
-0.000139576
0.28547
6.21234e-20
0.182345
0.302771
6.83757e-18
-1.08217e-12
1.88342
0.00690358
0.0679743
-0.00133943
2.09532e-11
0.946696
0.0693828
0.838079
-4.16094e-15
1.51205
-1.71784e-09
1.40885
2.02424e-14
0.000345295
0.000142736
0.160986
0.50899
0.259637
-5.60077e-09
1.19877
0.98
-3.84294e-09
0.940256
-4.33736e-14
1.55669
1.49383
1.54216
0.402841
5.38233e-08
1.54736
1.20265
1.35304
0.370557
1.03934
-2.13133e-15
0.0197704
0.963901
0.807257
5.22579e-08
0.284631
1.11256
1.37222
1.36057
3.03312e-09
5.57588e-13
0.0200133
5.93464e-05
-4.99777e-07
0.870999
1.01572
1.68731
-6.39598e-18
-0.000301968
0.00231431
4.01099e-14
0.930496
0.334035
0.0488908
-3.52823e-08
1.86129e-08
1.41278
1.53716
0.0123408
0.84449
0.998732
1.21437
0.147841
0.711329
7.94489e-09
0.0149811
1.20917
-3.70383e-14
1.5357
0.0194748
0.122705
0.000317902
-3.09487e-05
-6.59099e-09
-6.67712e-11
1.1265
-1.50676e-08
1.40602
0.000371271
-0.00086733
-0.0364706
1.02485
0.058042
1.51391
0.859537
0.0159597
0.00268041
1.07713
1.41172
0.00010529
1.14076
1.17944e-14
0.431607
1.47394
1.94012e-13
3.56195e-07
1.84135e-08
1.47219
0.570129
0.870859
1.45056
1.04569e-17
0.918524
4.57868e-12
0.000775634
-9.9426e-14
1.01097
0.00243582
0.80374
0.0171692
-5.06333e-06
0.0336558
0.000187636
0.658636
0.00200583
0.00695294
1.10555
0.00127369
2.43329e-16
2.18549e-05
1.34581
0.824332
0.266318
0.243459
3.74691e-05
-1.49682e-11
0.0530381
0.954508
0.391204
1.42893e-13
0.0459163
1.61368
0.0159388
1.05296
-8.65307e-05
1.15276
1.2123
-1.7648e-05
1.02419
0.94944
0.0538218
0.290685
1.29945
4.48647e-08
1.22948
0.414933
-4.02533e-12
0.0286116
0.527253
-0.0249761
1.49625
5.96211e-05
1.83089
0.275575
-0.0389508
4.73647e-14
0.0136665
0.129466
-4.92888e-05
-0.000157737
9.33319e-14
0.0105889
0.0564557
0.0950759
0.57188
-4.11638e-14
1.08874e-07
0.956021
-2.45654e-08
0.105426
1.33513
0.000307689
0.0155637
-6.82118e-08
-1.02784e-14
0.963146
1.682e-05
2.07406e-12
1.27758
1.57215
1.08849
0.000229186
0.0347746
1.40884
1.0578
-1.06756e-10
0.00147471
1.39148
-1.70499e-09
1.03957
-0.12919
1.09741
1.83942
0.39731
-2.2665e-13
0.0637763
0.790884
1.27883e-11
1.30156
5.85399e-19
-1.0863e-13
0.962431
1.55731
0.000354092
-1.06265e-10
1.27913
-7.02701e-08
0.0278119
3.45715e-13
-5.79124e-05
-1.34266e-16
1.55959
-2.03249e-05
0.514286
-0.000233557
-1.51824e-13
-3.17633e-20
2.17738e-07
-1.87402e-05
1.46411e-13
-5.17612e-08
0.000561183
1.18296
0.00383963
0.217638
0.00100602
0.0373992
2.73148e-07
0.0485228
-4.54179e-18
0.732824
-1.84608e-11
0.531318
0.185264
0.932425
-2.08086e-17
1.65384
4.65972e-10
1.58679e-18
1.13777e-18
-2.54378e-13
3.74929e-18
1.18518
1.78281
0.0518268
-4.28007e-06
1.48775
0.142616
4.87541e-20
1.30097
1.22858
-2.48432e-17
1.21554
2.21751e-05
0.266385
5.04461e-07
-3.76231e-06
0.130215
0.0180706
-2.53117e-12
1.47941
1.53623
0.585026
0.355602
-1.35544e-12
0.0249894
0.0421129
1.21121
0.0990513
4.97684e-05
-7.54037e-18
0.985918
0.247002
0.454398
0.998777
0.234159
1.06564
1.50418
1.77707e-11
0.000848163
0.124694
-1.14873e-06
0.0156101
0.491939
1.33038
1.0118e-10
0.000135233
0.9024
0.075626
-2.04347e-06
0.5821
1.1528e-16
3.81543e-13
1.05985
-1.48311e-13
-1.17963e-08
-2.45659e-08
1.10954
1.0741
-2.53599e-14
1.5087
-3.74813e-06
0.21077
-1.45547e-08
1.94089
1.02803
-9.14225e-09
0.929348
0.180367
0.811335
3.65955e-06
0.00104282
0.00621595
1.56554e-09
0.0109273
1.68563
0.0212899
0.120139
0.0231513
1.41491
1.47519
0.894616
1.38216
0.000579106
0.0438763
0.259346
0.145692
1.46097
0.0669094
1.09074
1.58146
0.0478257
0.184166
8.21826e-18
0.000483371
4.34209e-15
4.369e-11
1.71382
0.0501058
-1.12914e-11
0.000602205
-3.84084e-13
0.0432184
0.153341
0.674561
0.00602237
7.39198e-20
-3.39591e-14
1.42593
0.042284
9.46472e-16
1.05888
1.04963
-3.50598e-09
0.331296
-0.0113838
1.60415e-05
1.70308
1.54942
1.12797
1.91285e-12
0.000222805
0.991019
1.25022
-5.27249e-13
0.00210894
-3.18323e-12
0.433343
0.000452248
0.842469
3.4619e-08
-1.18931e-08
1.42683
-0.0345587
-6.87251e-13
1.49076
0.340619
1.13707
-1.64777e-11
-2.34424e-19
1.64317
0.00736275
-7.78325e-06
0.047972
0.0413852
1.43211
-0.0022654
-4.41465e-13
5.62901e-06
0.000119944
0.00197854
0.43365
0.605004
3.39526e-15
1.46538
1.56372e-15
0.806682
1.25745e-07
3.84676e-10
0.465493
0.000143325
1.59156
-6.66467e-20
1.00081
0.0661941
2.53745e-05
-1.7356e-07
-5.98338e-05
1.49189
0.134872
0.000577057
0.269959
0.13269
-1.20008e-15
0.000328059
9.36286e-13
0.00476159
1.12279e-14
-2.77237e-05
5.62814e-13
5.4927e-08
0.02906
0.909002
0.762094
0.00024234
0.0607056
-9.92455e-15
1.35137e-12
1.54795
0.620948
-8.33615e-07
-2.98589e-08
-0.0336276
-1.67296e-16
0.108016
2.00365e-05
0.0732833
-1.65216e-12
6.75676e-20
0.0317854
0.817273
4.183e-17
1.33831e-05
3.60991e-06
1.39999
1.04392
0.0676267
-1.61648e-16
0.0540362
-6.57662e-18
0.0473815
0.657513
0.0353735
0.0403038
0.00370789
0.000221644
-4.7869e-15
0.000409803
1.52702
1.19647
8.39587e-05
4.79771e-14
-0.00205218
2.43832e-19
0.438906
1.53992
0.0833587
0.0143195
0.0226709
-8.69184e-13
0.000103137
1.36594
0.0633271
0.351905
1.03582e-16
1.31521
-1.58774e-16
0.150555
1.20552
0.011948
3.2987e-11
1.93912e-10
-6.30445e-12
1.34019
1.00963
0.846915
0.000901109
3.05613e-09
1.24514
1.00109
0.985584
-0.000137903
1.12443e-12
-1.11853e-17
0.981775
-1.06869e-06
1.37631
0.0130519
0.00031529
0.536814
2.34406e-05
-5.27442e-06
0.973022
8.50345e-16
0.00177782
0.174212
1.0174
1.06441
4.33597e-08
-8.99898e-10
1.379
-3.67357e-14
3.17087e-13
0.000222591
1.14077e-16
1.10025
1.51996
-4.81828e-09
0.000626592
3.85505e-09
9.64626e-05
0.212794
0.0858299
-0.000357336
-2.63295e-15
0.00218127
0.51983
2.21852e-09
0.000921988
0.0194309
0.403064
1.60552
0.0553814
1.01882
-2.09534e-06
1.8891e-12
0.000284488
0.964276
1.46859
-3.86522e-13
0.0163604
1.11571
8.27808e-17
0.969071
5.80212e-10
1.20558e-09
0.0342871
0.433418
1.82581
0.996355
3.4744e-09
0.00192635
0.994272
1.49002
0.059443
0.339143
0.604373
1.50571
1.00113
-2.09318e-14
0.0517889
0.0066521
-1.56337e-09
0.000808114
0.000865043
-8.33572e-08
0.999184
1.00687
-0.0535316
2.50367e-17
0.451034
0.00174479
0.00284454
7.39493e-05
0.344523
0.0023955
1.75155e-05
-1.88551e-10
1.65282
-8.18528e-20
-0.00535929
-1.97008e-13
1.46409
1.48634
1.47203
1.46612
1.11855e-12
0.168783
4.79603e-15
-6.31935e-16
1.24653
0.049594
-3.67753e-05
0.00325895
1.00417
1.0851
0.0799034
0.253677
1.73818
1.55159e-06
1.64644
5.52847e-11
0.351501
1.44577
1.28956
-1.28241e-05
1.82614e-14
0.0194608
-8.03407e-14
1.5031
-1.61418e-17
0.975137
0.0886521
-1.70845e-05
-2.86146e-14
0.0107252
0.373545
-5.0071e-06
0.000122937
0.815728
-1.56325e-13
1.04201
1.38483
0.661858
1.48869
1.29893
0.230646
1.61586e-13
-3.84544e-05
1.41315
-5.5212e-14
1.60798
0.944548
5.57468e-05
-5.13036e-13
0.52341
1.50453
0.215145
1.39103
0.634928
0.958431
1.14729
-3.35404e-12
5.53386e-13
1.15961
1.01706
0.000508229
1.23277
-2.56129e-09
-1.6319e-14
6.45649e-17
-2.10035e-08
1.37797
1.23533
-4.15049e-06
0.00608426
2.05384e-16
0.0198628
0.003052
1.10172e-14
0.616537
0.00413462
0.17995
0.900874
0.192778
1.12794
2.03473
1.51357
0.995002
0.00316141
-2.1771e-11
1.18076
1.78356
-4.42625e-18
0.00879495
0.00538287
1.49423
0.478767
4.90943e-05
-4.20367e-17
0.00674982
1.71791
1.03268
-0.0619179
1.26719
1.83469
0.392448
0.879875
1.48107
0.00136672
2.17543e-16
0.729691
1.53461
0.000967135
1.71403
0.482695
8.92593e-10
1.33612
-3.63885e-05
-4.70143e-06
0.000565567
1.01088
-0.00106805
1.21046
5.09153e-10
0.654918
-0.000824122
9.10416e-10
0.627916
0.163396
0.629894
1.4813
0.453103
1.94711
0.00598262
1.17879e-17
8.75977e-06
1.49766
0.124872
0.95761
0.0384007
2.44951e-12
4.79745e-18
2.94198e-08
0.00140781
0.0231615
-0.000104788
-3.08864e-12
0.381287
-2.98021e-05
0.932394
3.19673e-08
-0.000295305
0.79144
0.00562065
0.882831
1.95944
-1.25271e-14
-4.55133e-20
-7.42364e-07
0.107015
0.189741
0.000297862
0.026593
1.6422
0.586333
0.0396371
1.62246
1.48752
1.61256
-6.88642e-11
0.00834789
0.458389
-1.89813e-06
5.07514e-12
0.0356926
0.0164669
0.00482512
1.47823
0.00547019
1.52907
-9.63726e-06
1.74995
1.58405
1.41219
1.4716
1.90031e-18
-0.234328
0.654466
-1.62732e-16
1.05861e-05
1.66034e-07
0.12004
0.00216368
7.25019e-07
0.00268827
0.19553
0.00765129
2.00663e-21
1.05379
0.095832
1.66836
1.48347
1.46593
0.0780882
1.79541
0.000564654
2.31763e-07
-1.68983e-11
2.00494e-20
9.39861e-06
0.00106391
0.0116819
0.0413657
6.44496e-20
0.995047
-2.56021e-21
0.167925
-1.58791e-17
0.386916
0.849028
0.757581
7.29746e-12
3.71309e-17
0.000516558
0.929384
1.01614
0.940528
0.0331815
0.663532
-1.61821e-13
-0.00592661
0.0430411
0.238579
1.64522
1.90105e-08
0.966067
0.0077741
0.000169724
0.317539
-8.40937e-15
1.05303
1.49478
1.69815
0.66794
1.11045
1.35112
3.95094e-08
1.03797
0.904692
1.51045
-1.00409e-11
0.555864
1.88893e-11
0.0639362
0.0034429
-1.11294e-07
1.04282
-4.30846e-05
0.0463018
0.0580148
0.996486
-0.00186404
4.58394e-05
0.112575
0.239237
1.7262e-14
0.994907
0.107318
3.92063e-10
5.81704e-17
-2.92516e-13
1.30974
0.978113
0.00641546
0.853905
0.359347
0.11704
-2.192e-07
2.9792e-19
1.55983
1.52287
1.00455
0.104045
0.429283
1.63973
0.00187413
0.0912619
0.000535273
-3.50972e-09
0.00488533
1.35941
0.225701
0.000341352
1.66625
0.0172536
-0.109676
-9.42684e-15
0.186588
0.279762
0.000923832
2.28015e-08
0.748836
0.65703
0.00846782
3.05388e-05
7.74942e-15
0.681341
1.52587
4.58872e-13
-7.74166e-05
7.1705e-18
-3.42664e-11
0.000364417
1.39001
0.0112882
1.5444
1.5894
3.07803e-17
0.0217906
0.951207
-2.45012e-11
0.915632
1.02355e-05
0.0762586
1.45518
0.881151
0.436459
0.0109019
1.55421
1.45244
6.56562e-10
0.0353886
1.31206e-13
0.0791821
0.986675
0.206701
0.0103804
1.15119e-05
1.08133
1.41229
1.42284
0.299505
1.39908
1.56683
1.01647
0.673058
-2.28633e-10
0.753571
0.000489429
-6.46195e-12
0.235655
0.00945615
0.000408116
0.769319
0.57602
1.20881
0.478149
0.000245406
-3.31049e-12
0.362866
1.4198
3.36855e-11
1.03312e-18
0.00274566
0.552266
0.00732801
-2.31327e-06
0.544233
0.617297
0.0752179
-1.89578e-05
1.37857
0.00210486
0.0216425
0.992086
0.0040169
1.60836
0.136018
1.49626
0.0555574
0.000367007
5.13503e-05
0.00245564
-2.53265e-15
1.44691
-1.39478e-05
-6.5717e-14
0.00261378
0.1075
1.29849
-6.93014e-12
0.981823
1.42874
0.591017
5.36952e-05
4.21616e-14
-0.000126545
5.81504e-17
0.0238316
-0.0031234
1.21972
0.480959
0.000100438
0.00938479
4.59397e-05
1.63336
2.36295e-13
4.5841e-07
-0.0021974
0.000115396
9.30607e-07
0.956395
7.16999e-16
1.56464
0.0388722
9.71038e-21
-0.0020186
0.0261816
1.49248
0.00460561
-8.68747e-10
0.611113
0.00282246
2.05481e-16
0.707969
2.62353e-14
-1.13368e-05
6.05002e-15
1.35479
8.67638e-09
0.750408
0.0175055
1.60108
0.258377
1.20326
0.753853
8.41912e-14
0.000347114
0.00162066
0.0119143
0.0641211
1.10517
2.08775e-06
1.40324e-15
0.000157034
1.30381
0.795261
3.3434e-13
0.000836948
0.968274
0.0797005
-0.000151751
0.101388
-0.0395855
0.0119577
-5.13161e-09
1.96002
1.89009e-15
0.00326782
0.445034
1.61792
1.5286
1.33306
-2.86451e-17
1.45052
4.38019e-12
-2.58157e-07
1.5232
0.00110543
2.03522e-13
0.000837204
0.959845
0.0938562
0.0105785
1.44752
-1.03205e-06
0.074188
0.201806
0.000105479
5.67556e-10
9.28918e-17
4.10439e-12
0.272982
1.18983
0.929214
0.218468
0.131379
-8.76585e-08
4.52844e-14
0.042463
-6.71593e-06
1.41445
1.21103e-15
0.00051756
0.0351413
1.27764
0.136236
-3.65545e-12
0.00559126
1.22139
0.341082
-6.9905e-15
-2.79886e-06
0.00540144
1.65258
-3.59666e-15
1.5182
0.10619
1.78036e-14
-3.52162e-08
-1.78284e-11
0.649477
6.68767e-05
0.000181136
0.0210222
1.3005
0.995784
0.0025864
0.477135
0.0504756
0.0625529
0.808462
9.44583e-06
1.4103
1.38274
0.416202
1.02146
1.4738
0.734926
0.583978
0.000114085
0.000374801
0.6339
-1.12997e-11
7.64964e-05
0.0740073
0.620822
-9.85626e-10
0.000672944
0.0265516
-0.00174127
1.03699
0.601406
-1.48401e-14
1.23254
0.711032
4.68123e-13
1.3372
1.74149e-17
1.27802
7.62172e-06
1.65726
-4.12194e-16
0.236465
0.346011
0.00297911
0.00124404
1.01118e-13
0.0116638
1.54387
0.0789272
1.52847
-8.36158e-15
8.95787e-09
1.36394
-1.89742e-12
1.48753
0.659619
7.18316e-12
2.72574e-17
1.91709
1.48628
0.420456
0.0226199
3.32119e-13
1.10105e-15
-2.04297e-10
-2.00646e-19
0.000334435
1.08876
1.07392
4.00782e-06
3.31829e-06
1.4158
-1.51693e-11
0.0531418
7.19442e-16
6.87732e-06
0.552572
-6.08116e-15
1.47361
0.168697
0.964482
0.00313484
-2.31529e-09
-6.84746e-11
7.63229e-05
-4.49112e-14
-1.11918e-05
0.975767
0.00359359
0.0131691
0.00245703
1.20095
3.99978e-05
-8.90598e-05
0.0335653
-6.15304e-05
0.000596886
1.52778
5.71811e-20
-0.000820934
0.964251
1.47919
0.599172
-9.8072e-13
1.02468
0.0352461
2.61743e-11
1.01311
1.38322e-13
0.240904
1.00276
2.54739e-15
1.21392e-15
1.44639
0.0144517
0.0227628
2.39423e-14
0.138648
1.12623
0.00185687
2.13531e-08
-7.7028e-10
0.000795993
0.0962381
0.105548
8.46961e-21
0.00843809
0.000999428
0.987323
1.00478
6.75599e-20
0.000963815
0.0397918
1.27771e-12
0.0014187
-1.84896e-16
1.28361
-3.1816e-20
7.55177e-20
-9.90516e-20
-0.00298746
1.10169
1.37667
-0.00020585
-4.5462e-19
6.16171e-16
-1.12436e-17
0.0715227
-3.05126e-12
1.22097
1.21292
0.987944
9.97426e-10
-2.14728e-11
1.86276e-05
0.419642
1.52347
0.41594
0.766089
1.14777
5.16666e-15
0.989577
0.00212415
-1.40403e-14
1.5082e-09
0.00206927
2.36129
0.5297
2.24388e-09
0.294036
0.380145
0.283694
1.16953
0.0132912
9.45431e-13
0.227181
-1.11833e-12
1.31227
-8.6026e-13
1.28052e-19
-7.75503e-12
0.0010756
0.995012
-6.15695e-12
0.944365
1.66542e-18
0.193278
0.0772465
0.265852
1.53236e-08
0.7734
1.07297
-9.44207e-10
0.0729977
0.955173
-2.28511e-07
0.0926629
-1.93748e-11
1.39942
1.4194
0.00341318
-0.0556704
0.0149458
1.29692
2.53948e-09
0.590084
1.83962e-15
-2.81721e-20
0.993152
0.696368
3.30113
0.456159
1.19143
1.38593e-05
0.485255
0.876873
1.4988e-12
-6.94293e-09
0.125927
-1.01233e-07
-9.79464e-14
1.66222
1.07415
1.53979
0.602144
1.60865
0.82874
0.00283241
0.0658996
1.60906
0.41164
0.0511372
0.183518
0.000622787
-4.65154e-05
0.00523672
1.07177
0.244651
1.05399
-2.90961e-11
1.14748e-11
0.000293264
1.12884
1.14982
0.28806
1.01305
8.34659e-09
0.00197258
1.0148
0.0199691
1.43801
1.5516
0.633618
1.30716
3.47412e-11
0.00575769
-5.87424e-09
0.978515
0.850797
0.984467
1.61644e-14
0.990702
0.454631
3.98963e-18
-2.19715e-15
1.71809e-06
-5.88592e-09
2.51269e-08
-0.0239608
0.00608864
0.179599
0.0037028
8.36453e-12
0.809806
1.26768
1.37592
0.344303
1.37973
-1.06358e-15
9.67809e-12
0.989668
-0.0185449
1.91091
0.425918
0.532868
-2.10191e-10
1.14873
0.000403174
0.00161647
0.867414
-1.31969e-06
0.403421
1.03236
1.57997e-11
7.90891e-12
1.03728
-1.48422e-06
0.0223077
1.48458
0.0549942
0.00264364
0.908644
0.213857
0.38635
0.608889
4.75389e-05
3.18496e-16
1.02374
-9.73304e-08
0.351528
0.777664
0.00133139
0.0548479
1.50585
6.17446e-09
1.31564
0.181316
0.0024439
1.76011e-09
3.32667e-05
1.29854e-05
0.878198
-6.75196e-10
2.35332
1.33881
0.323936
9.23633e-18
0.995884
3.83918e-06
0.0999092
0.000693014
1.72434
0.516991
-1.17472e-18
9.00088e-05
0.00767339
1.52561
9.31397e-13
1.71951
0.019999
1.87925e-15
0.405734
-7.57439e-18
9.3905e-05
1.03246
0.444871
1.11792
1.05513
7.9972e-14
-1.52981e-05
0.0131099
3.41504e-05
5.07133e-05
1.51502
1.33607
0.651768
1.09962e-12
1.41966
1.82503
-2.62312e-15
-1.10148e-17
2.02801
-0.00609981
8.48398e-21
0.283146
4.88818e-05
1.01474
0.10847
-1.03075e-14
1.00672
0.264017
1.64619
-1.1283e-15
1.76867
1.45933
1.91371e-10
-2.70486e-08
0.0644326
0.00140077
5.79065e-10
1.77008
-3.9802e-13
1.42504
0.669373
2.19234e-06
0.623204
0.0160535
0.827383
0.157339
0.0142886
-0.00478798
1.0983
0.984878
0.00028237
8.97471e-06
1.25144e-06
1.80579
-1.09762e-14
0.408565
-4.23664e-12
0.106454
8.18485e-12
1.31281
0.873989
1.6272
0.854597
0.00068824
0.940243
0.886582
-5.59587e-08
-5.574e-07
0.0083839
-6.19306e-07
0.00388904
0.000536155
0.00441943
1.5219e-17
3.17093e-13
0.000184483
5.86811e-05
1.65436e-17
5.01064e-14
0.173055
-4.12477e-05
0.03327
6.21345e-14
1.68804
0.396634
1.48772
0.602164
1.54332
1.44038
1.47957
-9.34603e-15
5.73629e-10
0.000164132
0.0228001
0.237558
0.180756
1.62989e-11
0.984169
1.03993e-11
3.61571e-09
9.74484e-18
0.000623102
1.03955
2.06994
0.116586
0.270517
3.8591e-17
0.00115922
1.19835
1.54548
0.00111957
0.303914
0.987719
0.00778247
1.76649
1.47451
0.860577
0.492987
0.0202472
0.984736
0.899888
1.66437
0.77323
0.158728
0.000375245
3.05715e-12
0.882828
0.920528
-8.758e-11
1.62681
1.59225
0.0855933
1.02064
4.54243e-11
1.09718e-17
1.36176
0.024748
0.420408
0.280937
1.19681
1.51048
0.000613013
0.961193
-2.11306e-08
0.33364
0.0472209
-6.74809e-15
1.62858
0.00891333
1.23853
1.51531
0.0113873
0.0018899
-1.62717e-05
1.5513
0.023507
0.190475
0.294332
-6.30565e-18
3.47341e-11
1.24487
-9.61307e-10
0.00114584
1.20852
1.26112
1.20538e-14
-4.34827e-11
-0.0288664
0.0600233
4.85612e-05
-0.0064418
1.47043
0.000362839
0.144485
-2.00197e-06
0.0135901
0.414169
0.460667
-3.06679e-12
0.346529
1.39935
1.39936
1.68013e-06
3.50214e-08
0.370999
0.0331683
0.000180326
-1.32026e-11
2.93344e-17
0.000245781
0.00438249
1.40067
-7.86992e-13
1.17835e-18
3.49182e-10
0.0637606
0.139263
0.01601
0.000375959
1.10999e-14
1.4559e-12
0.0139559
0.00133329
1.62827
0.0503806
1.50388
0.002253
0.047954
1.68765e-09
0.000731721
2.93294e-14
0.144365
-5.788e-08
0.479476
0.899114
0.288385
2.47499e-10
1.17636e-12
0.968856
1.99583e-06
0.00835225
1.01646
2.21745e-12
0.118293
0.0441202
0.000139183
1.44233
0.000515125
-4.13442e-09
0.740573
-1.56433e-09
-1.27616e-08
0.0112875
1.27065e-08
0.0299384
-1.67432e-12
0.200141
-3.95054e-08
1.47068
0.000201368
0.000689112
1.60504e-13
0.744722
9.15121e-11
1.02037
0.162027
-6.10443e-06
7.79252e-10
0.0119952
-7.97547e-09
1.07402
1.13014
1.16019
0.772029
0.969415
1.51021
-6.83754e-10
1.6966
0.00127843
2.01407
0.0236314
4.07723e-11
1.42576e-11
1.43351
-3.00564e-18
-2.04774e-13
0.319581
-1.30776e-08
0.0379318
0.888405
1.55538
1.70414
1.13821e-15
1.34976e-08
0.000110075
0.986369
6.02883e-13
2.91886e-13
0.868883
1.12908
0.0144785
-2.63614e-05
1.14162
4.70008e-15
-1.14956e-15
-1.36157e-06
0.72758
3.1715e-15
0.943636
1.5874
0.000746559
1.70951e-05
1.53136
1.2858
0.0779543
0.00353755
9.21267e-09
3.22656e-13
0.00136958
5.04015e-06
-4.88748e-10
1.25589
-3.26111e-09
1.26252
1.42794
-4.49488e-06
0.230378
1.64759
-2.28976e-18
7.40412e-06
1.13644
-8.93247e-10
1.40638
0.0136011
-0.000190847
-5.82788e-07
0.0155542
6.04324e-20
1.62567
1.52196
1.42712e-11
-0.000756491
1.55675
1.56958
1.004
0.151308
0.0510533
0.000220388
0.000116166
-3.88977e-05
1.44221
4.549e-14
0.0010172
0.179972
8.38627e-05
0.00200453
2.10004
1.29433
0.000432081
-3.57253e-14
0.0824025
6.03304e-13
-8.89468e-18
-3.39635e-10
0.000130462
7.16068e-05
8.23106e-19
-1.73553e-18
3.9978e-08
0.000241469
-2.01768e-08
2.47058e-05
1.49094
0.88121
2.12758e-19
0.420167
1.76277
-3.28881e-21
-0.00183676
2.45712e-05
-0.00155258
1.23154
0.0367126
1.51942
3.09354
0.000488321
0.0762098
-1.88035e-06
0.845442
4.28198e-07
0.00458165
-1.28509e-05
7.72674e-11
0.937142
0.000385475
0.00233764
0.446207
0.262991
1.06255
0.313256
1.04139
0.0630134
0.637304
1.81223e-05
0.0185417
0.196647
-1.02612e-17
0.00157176
-3.4719e-15
7.87357e-06
0.750592
0.0269653
0.966771
-3.23688e-15
3.37164e-09
3.01195e-10
7.33175e-15
-7.67436e-09
3.84876e-10
1.70284
0.340593
-0.008537
0.768037
0.0288201
-1.2417e-10
0.00049444
0.000169496
0.668669
1.42633
1.62854
0.00124145
0.37715
0.152244
1.04058
0.794891
1.51897
0.330952
0.0892896
1.40897
1.31246
6.23462e-18
0.512247
0.969193
4.34496e-13
2.82745e-06
0.814351
0.00290364
8.04223e-05
1.47772e-12
0.220961
3.90595e-14
-3.39681e-12
-4.57038e-17
0.276562
0.344346
3.64236e-11
0.949058
0.000919928
1.57961
0.170164
0.0570309
1.55197
1.40754
0.0145294
1.2366
8.39442e-14
0.000370605
0.000132988
0.0023952
0.780218
-6.4135e-15
0.419552
-5.45239e-08
-0.0108715
1.02944
0.000492862
0.00591367
-1.10586e-10
5.20177e-18
0.399814
0.236694
3.7218e-14
-1.48336e-05
0.000569694
1.2805
1.5072
7.4361e-19
0.955711
1.55914
-5.70839e-08
-2.29167e-05
1.06902
0.000231374
0.000122138
-1.2842e-13
-1.05934e-17
4.51072e-15
-9.77562e-14
4.59448e-13
0.157904
1.34842e-09
5.09739e-10
1.45318
-3.88331e-15
-4.59041e-14
1.02786
0.00067032
7.90536e-18
0.631088
0.809692
-2.40844e-15
3.2825e-13
0.104209
0.155134
1.85105
-0.000139689
6.3639e-15
0.0460724
0.0866067
0.883404
-4.317e-06
1.00851
-5.59893e-11
7.49056e-14
-2.38518e-15
-5.2719e-16
-1.0734e-08
0.000571334
0.034796
-4.37368e-16
7.79109e-05
1.36349
-1.89432e-16
1.0955
-9.25609e-11
1.51456e-13
-4.87827e-05
9.23875e-14
0.0426904
3.98323e-09
1.4691
-1.86566e-13
1.54609e-09
7.40397e-13
-4.53506e-17
2.73014e-20
3.84688e-11
1.67773
1.1346e-14
1.78758e-05
0.000475079
6.56785e-15
2.09098e-08
0.972135
-2.12566e-17
8.95075e-10
1.6213
1.45981
0.150621
0.0602441
4.39423e-05
-0.000462346
2.98e-06
6.24765e-17
1.37776
0.959554
0.007263
2.37862e-10
0.0803699
0.768511
1.44092
1.01737
0.895694
1.79479e-15
0.323246
-1.87322e-12
0.00198746
1.01301
-6.31706e-06
1.7095
5.65804e-18
-2.43284e-07
2.26051e-06
-7.16552e-21
0.673609
1.51103e-17
1.35323
-0.0221625
1.77996
0.224665
-1.21598e-14
2.01945
1.49175
0.962444
2.85722e-19
0.786018
0.974884
1.57332
0.0752606
0.136933
1.59162
1.69026
1.37504
1.18569
1.47127
-7.62442e-16
0.0116844
1.01985
0.915249
0.00173108
0.576755
-1.52837e-10
1.02843e-10
5.85398e-18
0.969662
6.53769e-19
0.0622558
1.45358
1.01626e-08
-8.47395e-11
0.00263914
0.0184336
-0.0111665
1.16752
0.857147
7.56215e-14
0.147105
0.357019
-9.85848e-07
-6.77644e-09
0.0200003
0.679446
1.16438
-0.00272376
-1.68504e-14
0.903531
0.553644
1.31551
0.931127
0.81715
1.36414
1.17546e-11
0.200451
0.770732
0.000992168
0.000579584
0.75693
1.03921
-3.00922e-17
-4.59912e-09
7.98908e-09
0.539112
0.047564
-9.77277e-14
1.48101
0.281056
0.00200769
1.03272
0.0054657
0.469125
0.997561
-1.39947e-09
-6.78618e-17
1.47878
-8.28705e-14
1.44565
9.37617e-14
0.00193681
-1.25921e-20
1.18336
-0.000114133
-1.18263e-20
0.0402899
0.920388
3.34384e-14
3.95041e-06
0.553447
0.98482
0.915688
0.965511
-2.60837e-13
0.862009
0.0774151
5.05727e-10
1.54146
5.08883e-05
1.08192
-1.23414e-19
1.21867e-05
1.00562
0.000214191
0.00212649
-0.00649464
0.000264398
-8.9452e-16
-6.50141e-13
0.401521
0.979393
1.3722
0.521923
-4.24701e-15
0.0406625
1.39878
1.30669e-12
0.0502
-3.89006e-18
0.727681
1.13565e-10
0.698775
0.282322
0.97889
1.27123
1.54681
-0.000305207
1.48128e-09
0.0615608
0.869161
0.98125
-2.19063e-16
0.0209254
1.01434
0.699397
-5.7009e-21
7.90943e-10
0.00705712
0.0281785
1.02102
0.0142225
4.37843e-14
2.16051e-09
1.57031
-4.57041e-06
1.11251
1.03888
0.000601384
0.0409035
0.00220868
1.48663
0.00216807
6.63285e-05
2.51758e-08
4.05541e-15
0.427557
2.89076e-05
0.00425567
-9.45914e-08
2.17739e-09
1.51944
-3.56494e-19
1.35044
-8.24012e-12
0.000119444
0.000775961
0.0776396
1.47404
1.55764
1.13405
0.316665
0.0114941
0.0102566
0.199446
-8.4457e-10
-0.00930496
1.16625
1.07358
2.64622e-10
1.54522
1.81803e-20
0.957721
0.565732
1.22807e-11
0.146848
-0.00492895
-1.74228e-10
4.42031e-05
1.52942
1.08507
-0.0189221
0.663345
0.15223
1.6012
1.10396e-05
4.53966e-05
-3.33824e-12
-9.91136e-06
0.121609
1.08211
-3.22933e-18
0.0377659
0.908083
-1.02182e-14
1.01148
1.59591
0.00148785
0.000673246
0.173627
-2.71119e-10
0.716078
4.34902e-06
-0.0218513
0.0081592
-1.54623e-11
1.6432
0.00154143
1.5463
0.893793
0.000103588
1.13992
1.76439
4.02212e-12
-0.0417304
0.0680529
0.0607533
0.0423255
1.4704
0.00153505
5.26932e-13
0.186962
5.57234e-21
0.854978
1.39268
0.00211089
-6.07633e-06
0.000160309
5.60913e-05
1.11762e-16
-2.10959e-05
1.43716
-5.81868e-19
0.0225597
1.82891e-14
-6.59181e-13
1.82067
8.074e-14
1.52461
0.0371847
0.000488902
0.00468091
-0.000652998
0.471514
1.02598
0.0323493
0.240524
-6.73237e-08
0.986482
2.95178e-14
8.46425e-08
-9.2948e-12
0.00347144
0.0143876
5.68171e-06
-3.82872e-18
-1.70426e-05
-8.69799e-16
1.07479
0.00142114
3.11342e-14
0.227032
-1.78438e-16
1.32602
0.00105346
0.0804697
0.0202514
2.51718e-14
0.401789
1.33604
-2.54638e-06
1.45994
4.78443e-08
3.32846e-09
0.243336
2.07982e-05
0.00446122
1.30301
2.86362e-09
0.000241205
0.88565
1.09312e-10
-0.00177115
0.00948855
1.58265
0.987254
0.932006
-8.62546e-06
1.11728
0.903202
0.169701
1.43036
-0.000283105
4.8397e-11
0.00758085
1.51876
-3.86236e-15
0.719241
0.00112374
0.963093
1.4115
0.672736
0.56293
0.0163149
1.09163
1.71721
0.279823
1.06144
0.210631
0.000616793
1.67396
2.61135e-05
1.53068
0.000108332
6.79614e-06
-9.39487e-13
0.183035
0.0560082
1.15131
0.263476
0.00100848
1.70368e-07
6.83198e-07
0.0366446
0.00999682
2.14737e-13
7.99256e-05
-3.19279e-15
-0.0164242
0.0841732
2.1111e-09
0.263793
0.0400115
0.26388
-2.23192e-18
1.39996
0.011608
1.61282
1.07304
0.000292644
1.05492
0.642006
1.52676
1.15175
0.0352627
-7.35456e-08
0.59992
0.487739
1.52662
0.0132094
1.71398
1.5763e-09
0.285139
0.00291853
1.50823
-1.06782e-17
0.000212986
0.27857
0.0058774
0.139129
0.000182332
1.38127
1.14532
1.51965
1.18358