/*--------------------------------*- C++ -*----------------------------------*\
| =========                 |                                                 |
| \\      /  F ield         | OpenFOAM: The Open Source CFD Toolbox           |
|  \\    /   O peration     | Version:  4.1                                   |
|   \\  /    A nd           | Web:      www.OpenFOAM.org                      |
|    \\/     M anipulation  |                                                 |
\*---------------------------------------------------------------------------*/
FoamFile
{
    version     2.0;
    format      ascii;
    class       volScalarField;
    location    "10";
    object      T;
}
// * * * * * * * * * * * * * * * * * * * * * * * * * * * * * * * * * * * * * //

dimensions      [0 0 0 1 0 0 0];

internalField   nonuniform List<scalar> 
26625
(
1.70882e-05
0.137068
1.40212
1.57014
5.78713e-07
9.61666e-05
0.000634671
5.15773e-05
0.283945
1.58686
9.27131e-12
0.536586
-7.20763e-07
0.498024
1.35957
2.25215e-06
0.157826
1.48711
1.59833
1.0764
-0.00037201
0.00837426
2.62008e-11
0.316174
1.0035e-06
1.35316
0.349699
0.0784579
4.28106e-05
0.420875
1.54314
0.996062
0.122714
0.971111
-6.89675e-08
-1.18073e-08
0.00943302
1.4314
0.0657255
0.0893946
0.118982
1.4638
0.663527
1.20358
0.00020657
1.36722
0.0166635
1.58901
0.0153791
-7.57127e-11
1.57415
0.996919
0.821685
8.53965e-06
0.992308
0.202207
0.525203
1.36874
0.00569576
1.48828
-2.88997e-16
-4.73417e-07
4.54092e-06
0.154403
1.44419
4.4152e-14
0.841753
1.54145
0.0670115
0.232812
1.43013
8.0014e-10
0.0687984
-1.40888e-07
3.89693e-12
1.07627
2.84481e-09
5.98973e-15
0.944349
1.64232
0.947409
0.0682812
0.682334
1.35361
0.594527
1.558
-2.9059e-08
5.55595e-14
0.0276729
0.574863
1.97801
1.47073
0.298936
0.676163
1.07543
0.541048
1.02684
1.2022
0.810636
0.969212
0.644855
1.53671
1.51462
1.39791
5.13083e-05
1.03832
-3.59471e-13
1.38618
0.973577
-1.25071e-06
1.4865
0.00290726
0.300889
1.38412
1.36815
1.51331
4.56035e-10
-7.4178e-09
0.041075
1.46894
1.40335
1.14656
-5.58952e-10
0.0119524
0.00116239
1.48471
0.907343
2.27836e-16
1.02004
1.13832
1.42326
1.08899
0.805644
-1.6626e-05
-0.000711654
0.880257
0.522811
-2.43167e-14
0.630032
0.000818555
1.18292
1.62962
0.000372641
0.373995
1.59682
1.43912
1.10972
1.57004
0.165371
1.55767e-14
1.32359
1.01758
1.33028
0.0840002
-3.16259e-16
1.00424
0.943462
1.49532
0.983955
1.52497
0.108592
1.03984
1.06586
1.21186
5.47107e-11
-2.36503e-06
1.56446
0.876372
0.0316095
-2.84412e-11
0.82316
1.22021e-10
0.108425
0.93416
1.08644e-15
1.72929
0.854471
0.109534
1.3228
1.7982e-11
0.0213197
0.00425693
-1.84827e-11
1.57714
0.161203
0.857852
0.331368
0.949945
1.62128
0.787183
0.925638
0.999486
1.33752
1.45433
1.24266
3.08238e-06
0.91475
-0.000315284
1.51116
7.62676e-11
0.0150102
1.46722
-2.98585e-10
0.229896
-2.56649e-10
1.11208
1.7765
1.4918
0.00162773
0.904121
-4.4072e-12
0.799498
-4.73308e-09
1.02522
-1.47113e-05
1.0186
-0.08264
0.0296544
0.167782
1.06011
1.46759
-1.63786e-11
1.75505e-12
0.0115113
0.286419
1.46775
7.73782e-09
0.946542
0.320087
0.462727
1.36817
0.161426
1.42698
0.0609386
2.71468e-12
0.175762
1.53836
0.2707
1.50378e-11
0.558862
1.32324
1.27291
1.41263
2.73728e-10
1.06288
0.260018
0.0282212
-2.44427e-09
5.44973e-11
1.28977
1.57017
0.0469402
-3.31475e-05
0.744838
0.0740194
0.00805308
-1.61709e-14
-2.07872e-05
0.3451
0.673605
-2.84827e-06
1.7182
0.646431
0.263301
1.36695
1.5331
-8.64083e-10
-1.64556e-08
0.020351
1.46472
0.557517
1.51652
1.26806
0.289082
0.328226
-9.99033e-14
0.952102
1.32989
1.05099
0.0326824
0.0248158
2.71537e-12
1.48601
0.930879
0.866628
7.92378e-10
1.36504
-1.5689e-07
1.53977
0.00587837
1.86921e-14
9.40902e-05
1.29217
0.956074
0.770146
7.72614e-14
-2.17555e-15
0.973451
-2.39148e-11
1.42707
0.831132
-6.83552e-06
1.46081
2.54842e-06
0.124334
2.73611e-16
2.03514e-09
0.000356132
-1.95182e-13
0.00938591
0.0102665
-1.25881e-18
6.29881e-15
1.38595
1.14084
0.540909
0.518995
0.0174724
1.69864
1.11595
-7.63083e-16
0.639278
0.019045
0.00647483
7.11967e-14
0.390537
0.946184
1.5392
0.133969
0.230947
0.135254
-3.89694e-05
0.890038
1.21318
1.41843
0.0069876
0.953871
0.0300323
1.80203e-16
0.827201
1.63296
0.655055
0.969235
0.307628
0.718755
1.19824
1.02597
0.800425
0.00291181
-0.00418233
1.52245
0.0469357
0.212922
1.69457
0.196792
1.1002
0.913521
1.57938
1.18085
1.63176
1.03094
5.73421e-11
0.0530336
0.0721125
1.48
0.596297
0.645935
1.64794
1.04034
0.31849
1.57778
1.40825
0.698476
-3.90766e-11
5.37741e-07
0.961338
0.384854
-6.03673e-13
2.3911e-14
1.58663
1.01753
1.02982
0.765356
0.265714
0.236619
-0.0213046
1.00279
0.181161
0.0452674
0.26743
-1.88952e-13
3.97343e-05
0.135538
1.76281
0.0499671
1.61538
1.65144
0.162342
0.971466
1.40248
1.15096
1.01817
1.604
1.02675e-09
-4.32424e-06
0.378986
1.27382
0.000666031
0.0147508
0.84338
1.48842
1.66365
-2.67562e-07
-4.85642e-11
0.226285
1.52749
0.21012
1.32613
1.45679
-4.61951e-08
4.2176e-12
7.50947e-08
1.593
1.07321
0.0208755
4.59265e-05
1.02738
0.0221986
5.14769e-11
0.690783
1.60612
1.4746
0.0607698
1.33631e-09
1.38767
1.10519
-7.57297e-13
0.487675
0.00777135
1.7242
0.429738
-8.45991e-10
0.573705
0.957305
1.60585
0.0064616
8.51106e-16
1.42066
0.0533808
1.61786
-0.0930205
0.82602
-4.19365e-11
1.08878
0.00222035
0.00804637
0.236333
-4.28962e-12
0.00010585
1.3387
1.31935
1.55459
9.60524e-05
1.43905
0.000317112
0.724323
8.90391e-16
0.8008
1.38056
1.51951e-13
-1.0301e-09
1.92974
0.168857
0.80701
-0.00711401
1.17609e-08
0.915734
0.463422
0.944049
1.22965e-11
1.51094
-3.90638e-07
1.40884
1.16997e-10
0.0264844
0.0179459
0.987254
0.902784
1.24828
2.81479e-07
1.2952
0.973962
-1.28306e-07
1.4576
-1.60222e-10
1.55638
1.48429
1.5563
1.26071
6.25517e-05
1.54578
1.2039
1.35504
1.33363
1.01348
-1.07455e-11
0.274523
0.963442
1.19656
1.79086e-06
1.23784
1.12488
1.37328
1.35868
2.3121e-06
2.94711e-09
0.318088
0.0107589
-2.7223e-05
0.910606
1.00403
1.71051
1.44415e-14
0.0470395
0.185239
2.66786e-10
0.926553
1.15019
0.492305
-2.29949e-06
9.11585e-07
1.41275
1.79902
0.283915
1.05097
0.99434
1.41247
0.799058
1.45256
1.70305e-05
0.180033
1.20752
-2.89488e-11
1.53567
0.131915
0.579865
0.0389299
-0.000136063
1.77991e-07
3.82124e-08
1.05165
-4.31282e-06
1.40993
0.0310818
0.00929723
-0.110836
1.01735
0.439638
1.71457
0.960913
0.241283
0.0696455
1.13248
1.41172
0.0334918
1.14061
2.79559e-11
0.892469
1.47044
1.17744e-09
0.000258291
1.4458e-05
1.70882
1.94707
0.868531
1.45056
5.15998e-14
0.918917
-4.14534e-10
0.056005
-5.67391e-11
1.00944
0.0825559
1.71123
0.239843
0.00160563
0.245543
0.0113465
0.8091
0.0837042
0.068196
1.31387
0.0788232
-1.44726e-12
0.00421971
1.35171
0.884642
0.773788
0.724146
0.00232768
-6.70496e-09
0.454465
0.95461
1.45252
-4.94455e-10
0.199877
1.61432
0.362479
1.06122
0.0106404
1.1501
1.21064
-0.00162904
1.06324
1.40788
0.140751
1.00878
1.3022
5.2558e-07
1.21542
0.96259
-3.59662e-09
0.27259
1.07196
-0.0372005
1.49625
0.00575215
1.83087
0.621543
-0.105185
-7.42534e-11
0.23483
0.373995
-0.00078632
0.0144563
2.07623e-10
0.240534
0.196531
0.641473
1.41391
7.63618e-12
2.31614e-05
0.958617
-1.56493e-05
0.136128
1.53288
0.0152694
0.141088
-1.37796e-05
2.59299e-10
0.953228
0.00177135
1.36565e-09
1.284
1.54863
1.86097
0.0136442
0.339027
1.40894
1.16393
-9.56208e-08
0.0901702
1.39158
-6.91844e-07
1.03904
-0.151377
1.24945
1.84625
1.40336
-1.50652e-10
0.336595
1.0048
1.12648e-08
1.31076
4.98751e-15
2.27218e-09
1.04142
1.55638
0.0245717
-1.09696e-07
1.45644
-8.36919e-06
0.304182
-9.62904e-10
0.000837932
-7.75369e-13
1.55991
0.00674871
0.936143
0.0939159
-2.57123e-10
-3.80426e-17
6.85464e-05
0.00128258
-6.48761e-10
8.07729e-06
0.035358
1.18275
0.146409
0.423491
0.0368163
0.4008
0.00016478
0.515007
-3.40518e-15
1.26017
-2.07794e-07
0.866193
0.601383
0.965336
-7.50008e-14
1.648
-4.34271e-08
8.64714e-15
-5.17818e-14
-2.0295e-08
4.83156e-15
1.18709
1.81287
0.663257
-0.00066919
1.47448
0.232084
7.17289e-17
1.53913
1.22376
6.68476e-14
1.63606
0.0044638
1.15957
-0.000156158
-0.000368533
0.295331
0.379004
7.50729e-09
1.47941
1.53625
0.602756
1.29297
-2.68123e-10
0.350796
0.365124
1.21186
0.550285
0.00434594
-4.29453e-14
1.0466
1.22393
1.27619
0.964881
0.99603
1.07173
1.50499
8.02338e-08
0.0312286
0.271799
0.000130555
0.221465
1.27914
1.53638
1.79324e-07
0.0186277
1.37494
0.398592
0.00128127
0.873062
3.94739e-13
-3.11727e-11
1.05672
-3.79502e-10
-3.67305e-06
-5.84573e-06
1.78065
1.77178
-2.69872e-11
1.50869
0.000648716
0.766067
1.94136e-06
1.9413
1.02641
-2.13214e-06
0.939209
0.83823
1.14825
0.00167606
0.0680504
0.170865
-1.05423e-07
0.216217
1.6878
0.157534
0.692178
0.399704
1.41495
1.47798
1.3124
1.38269
0.0177684
0.327799
1.05301
0.701744
1.46098
0.0791264
1.0431
1.58209
0.0873487
0.868463
3.82348e-14
0.0295071
-3.55358e-11
1.77129e-08
1.71806
0.519346
7.09964e-08
0.046833
2.72296e-10
0.209998
0.717144
0.731798
0.0793602
4.41123e-16
1.07758e-11
1.42945
0.668963
-1.89906e-11
1.05948
1.05196
1.78214e-06
0.662272
-0.0479294
0.00385278
1.70296
1.54941
1.12983
9.06749e-09
0.0253747
1.66812
1.2525
-5.98881e-09
0.115078
1.73895e-08
0.635873
0.0393467
0.909793
9.56397e-06
-1.83986e-06
1.42797
0.0405458
-8.05446e-11
1.49065
0.954998
1.63201
1.16821e-07
-1.64355e-15
1.85923
0.231552
0.00161233
0.20184
0.241832
1.4321
-0.00721329
-1.17217e-09
0.000623157
0.0114539
0.0752415
0.674603
1.4647
6.12724e-13
1.46537
1.30259e-12
0.97786
4.14961e-05
-4.22853e-06
1.33079
0.0041178
1.59156
-3.2734e-16
0.999103
0.533724
0.00469891
-5.57689e-05
0.00937637
1.4923
0.360995
0.0481825
0.351023
0.844144
-3.23854e-12
0.0295284
4.67126e-09
0.167276
7.76573e-12
0.0317952
5.3855e-10
2.08391e-05
0.371428
1.70256
1.18324
0.0211414
0.722777
-1.12853e-11
3.7592e-09
1.54791
1.45137
0.000832245
-2.66943e-06
-0.0814254
-2.21379e-12
0.833606
0.00220298
0.346637
-1.15209e-09
1.19483e-16
0.319372
0.922023
-1.38588e-12
0.00312432
0.000512468
1.39796
1.03999
0.514804
-1.51313e-13
0.431487
-1.43729e-14
0.529282
0.696951
0.554455
0.355099
0.071828
0.0267027
-2.17935e-11
0.0371505
1.53087
1.41559
0.009566
2.96345e-10
-0.00867656
2.2494e-15
0.887521
1.53796
0.592926
0.240662
0.136292
-1.10057e-09
0.0160741
1.36645
0.113971
0.934031
1.82845e-13
1.31493
-7.77031e-13
0.787682
1.32512
0.180946
3.09574e-08
8.41392e-08
2.07007e-08
1.35443
1.00728
0.848262
0.0607729
-9.23361e-07
1.24411
1.00104
0.982893
0.00917973
-2.96676e-09
-1.73318e-14
0.992906
6.91454e-05
1.37608
0.00819719
0.0228795
1.05364
0.00283857
-0.000299433
0.97488
1.02262e-12
0.0926024
0.760551
1.01746
1.06566
3.0555e-05
-4.62931e-07
1.37288
-3.3853e-11
-7.58103e-10
0.0127086
2.01179e-13
1.10029
1.54917
-2.07419e-06
0.0515181
6.87111e-06
0.013117
0.342569
0.0653816
-0.004025
-8.15317e-11
0.0607697
1.07364
2.82112e-06
0.00393958
0.270225
0.961739
1.62325
0.446601
1.02624
0.000292562
-8.30668e-09
0.0177875
1.53884
1.46859
-3.91239e-10
0.237892
1.09837
6.44616e-13
0.967521
5.72391e-07
1.11363e-06
0.595843
0.923536
1.80499
0.996382
-2.44177e-06
0.107902
0.992967
1.48991
0.713143
0.4813
0.667522
1.50379
1.0011
-8.47008e-11
0.489756
0.175723
-7.73924e-07
0.106633
0.0619544
-1.52192e-05
0.99908
1.00621
0.0725409
1.54211e-12
0.588813
0.0506684
0.140385
0.00938699
0.533341
0.11222
0.00579892
-1.08277e-06
1.64012
2.8454e-15
-0.00432671
-2.875e-10
1.46414
1.48634
1.47489
1.46612
-3.20709e-09
1.07873
2.75152e-11
7.32804e-13
1.25854
0.219905
0.00467636
0.105779
1.52527
1.43943
0.557213
0.740508
1.7482
0.000281088
1.64679
1.49804e-08
0.851549
1.44825
1.28729
-0.000432024
1.79988e-11
0.356762
3.75658e-10
1.50789
5.82781e-15
0.975566
0.463348
0.00277434
1.82929e-11
0.245886
1.1748
0.0321045
0.0036256
0.878709
-6.55216e-10
1.04143
1.38073
0.975238
1.49153
1.29867
0.850222
-5.29449e-10
0.000563851
1.42091
-4.13634e-11
1.60798
1.43039
0.00947885
-1.78669e-10
1.46239
1.50452
0.846756
1.39094
0.955009
1.66308
1.4718
9.63128e-09
9.9977e-10
1.37522
1.01626
0.0376291
1.27402
-5.76278e-06
-1.09029e-11
7.36161e-13
4.49457e-06
1.49598
1.28933
-0.000140071
0.0306692
-1.20828e-12
0.346624
0.0230468
3.59381e-11
1.39666
0.140794
0.22601
1.20644
0.351088
1.13106
2.03307
1.51488
0.994996
0.0793829
-1.31908e-06
1.20042
1.78395
-1.3278e-14
0.135442
0.176253
1.49419
0.984312
0.00201072
1.22619e-13
0.00853748
1.70788
1.04987
-0.0518006
1.33903
1.82777
1.37766
0.952087
1.48361
0.0442157
5.5141e-13
1.06454
1.53485
0.0488111
1.71297
1.0102
-1.42816e-07
1.5979
-0.000813868
0.000813291
0.0374732
1.00937
-0.00997047
1.22795
3.97054e-08
1.49581
-0.0137211
2.30977e-06
0.778943
0.934327
1.42733
1.48169
0.717431
1.94814
0.110071
8.59829e-14
0.00208511
1.49766
0.497409
0.960807
0.284477
1.66631e-08
2.24882e-14
-1.13909e-06
0.0719845
0.305196
0.00185913
1.23681e-08
1.00877
0.00491304
1.28731
3.04732e-06
0.151354
0.964419
0.0665094
1.52126
1.9559
6.28753e-11
-6.20082e-16
9.25137e-05
0.386323
0.7435
0.0317735
0.425676
1.64224
1.47056
0.379395
1.62259
1.4873
1.61257
-1.77057e-07
0.0233594
1.25804
-0.000985686
7.87743e-09
0.553265
0.297234
0.118458
1.67811
0.121758
1.53053
-0.00103286
1.74857
1.58901
1.64487
1.47096
2.79981e-14
-0.187833
1.49054
-3.22261e-13
-0.00205667
0.000378925
0.842913
0.120218
0.000433254
0.224089
0.249894
0.0157668
-1.88186e-16
1.05377
0.365051
1.66758
1.48046
1.46549
0.279248
1.79436
0.0353558
3.41297e-05
-6.80496e-08
1.54236e-16
0.00886354
0.0665173
0.220775
0.159416
1.72495e-16
0.994402
-4.39145e-17
0.682762
4.59474e-14
0.38666
0.850184
1.44681
4.44861e-09
-2.32798e-12
0.0310961
0.92973
1.01611
1.64
0.485298
1.42825
-2.96745e-10
-0.0180018
0.443599
0.806325
1.63844
2.8687e-05
0.956757
0.200826
0.0174353
1.09275
-4.44933e-11
1.05324
1.49615
1.69753
0.969615
1.09165
1.56649
4.8889e-05
1.06997
0.91965
1.52438
-8.17408e-09
1.35304
6.34972e-09
0.260847
0.212071
-1.71836e-05
1.04129
0.00157756
0.421122
0.731108
0.997592
-0.00786689
0.00661626
0.287439
0.24228
1.74822e-12
0.995136
1.09865
1.05573e-08
2.43973e-12
-6.83056e-11
1.31849
0.978505
0.184306
1.43594
0.969477
0.911082
4.49023e-06
2.11999e-16
1.55983
1.54708
0.993018
0.205353
1.02305
1.63973
0.0586737
0.455294
0.0511697
-1.61843e-06
0.124477
1.36256
0.65396
0.0257278
1.67701
0.0371719
-0.20599
-1.19684e-11
0.805736
1.04096
0.068508
1.79535e-05
0.933409
1.1219
0.185895
0.00611155
-1.15585e-11
1.16483
1.52587
1.74352e-09
0.0829675
1.49117e-14
-6.03867e-08
0.014773
1.3901
0.337828
1.54448
1.58933
9.95528e-14
0.285532
0.970905
-3.73068e-09
0.925684
0.00332228
0.22597
1.45228
1.48983
0.639538
0.0682587
1.55785
1.45244
3.43691e-07
0.334841
5.03387e-10
0.583868
1.00677
0.289302
0.178196
0.00265881
1.08114
1.41231
1.42878
0.76228
1.39907
1.56626
1.01523
1.54754
-1.69413e-07
1.27381
0.0329121
-1.51875e-08
0.451477
0.297138
0.161171
1.6037
0.72126
1.43456
0.867207
0.0194171
-8.11286e-09
0.536963
1.42002
2.18522e-08
2.96953e-14
0.146316
0.974095
0.0966948
0.000483448
0.831519
1.0752
0.316913
0.00382625
1.38046
0.0632461
0.118581
0.991518
0.161582
1.60801
0.624248
1.5014
0.590234
0.0363277
0.00400682
0.103273
-7.61987e-12
1.44692
0.0017349
3.70206e-10
0.135141
0.817179
1.29865
3.47656e-08
0.981825
1.42868
1.4946
0.00790129
1.83371e-10
0.00104143
5.75988e-13
0.144479
-0.0204273
1.44376
1.09511
0.0111538
0.245823
0.00870934
1.63591
8.06311e-11
0.000261539
0.0210771
0.00760414
0.000799319
0.956914
9.64955e-13
1.63356
0.522766
2.77177e-17
0.01165
0.528416
1.61102
0.102911
-7.11166e-07
1.02686
0.166511
1.07509e-12
0.88819
-9.27933e-11
0.000287964
1.22788e-12
1.35463
1.42146e-06
0.946163
0.295594
1.60105
0.515717
1.20266
1.14872
4.14354e-10
-0.000312968
0.048133
0.0288135
0.572409
1.10769
0.00153705
-3.65192e-12
0.0205815
1.30389
0.930246
-3.89456e-11
0.054376
0.968123
0.487934
0.0364622
0.638926
-0.022388
0.186708
-6.54899e-07
1.9578
2.89609e-12
0.146648
0.908655
1.63638
1.52858
1.33812
1.70857e-14
1.45081
3.88642e-09
2.33411e-05
1.52086
0.117265
-1.7389e-11
0.0554251
1.10404
0.122056
0.174549
1.44747
0.000435325
0.151587
1.13855
0.0705843
7.7676e-07
2.44683e-13
-7.74146e-09
0.611478
1.18362
0.968132
0.744698
0.711461
-3.29969e-06
2.1385e-10
0.112661
-0.000483354
1.41571
-4.77632e-12
0.0586556
0.113045
1.27766
0.317161
-2.75691e-09
0.380462
1.21991
1.0777
-1.32811e-10
0.000102754
0.202771
1.64079
5.45598e-12
1.51949
0.892516
3.39559e-11
-7.5944e-06
-1.80803e-08
0.733764
0.0123077
0.021689
0.411722
1.58814
1.21873
0.0856167
0.646446
0.375406
0.403508
0.833424
0.000506568
1.41027
1.3746
0.817347
1.02343
1.47396
1.17188
0.586402
0.0141025
-0.00289046
1.47837
1.50098e-07
0.00776784
0.715594
0.969677
-1.40707e-06
0.0447799
0.321272
-0.0112789
1.038
0.787642
-4.5306e-11
1.25753
1.26106
-2.55392e-09
1.33718
4.03623e-14
1.277
0.00151559
1.65716
-1.63416e-13
0.412302
1.07803
0.104068
0.0555065
3.62948e-10
0.0877827
1.62969
0.435828
1.52847
-3.92532e-11
2.79436e-06
1.37747
-1.69561e-09
1.48762
0.775189
-2.35896e-08
9.04951e-14
1.91709
1.48517
0.862025
0.246027
9.0072e-10
1.56532e-11
-6.48395e-07
-2.21449e-15
0.00624495
1.08964
1.06911
0.000611255
0.000866078
1.46868
-8.55521e-09
0.197837
-1.36965e-11
0.000650338
1.51558
-3.03726e-11
1.4553
0.754394
0.965914
0.137542
-1.19763e-06
-4.48738e-08
0.0115821
-3.49099e-11
0.00217827
1.12765
0.125307
0.229704
0.114915
1.51902
0.00617735
0.013055
0.543903
0.0641493
0.0291809
1.52778
5.70917e-17
0.000588111
0.965061
1.47451
0.718209
-2.24723e-09
1.02457
0.212668
2.19872e-08
1.02905
8.11954e-10
0.286945
1.00282
-2.0176e-11
3.47632e-12
1.44634
0.105664
0.358226
1.55582e-10
0.580794
1.12282
0.122998
-5.57175e-07
8.4683e-07
0.0593666
0.50241
0.200932
4.39369e-17
0.153857
0.0700716
0.98629
1.005
-1.48602e-16
0.0708003
0.526241
-3.94129e-09
0.0764552
-1.23627e-12
1.2836
-4.08865e-16
6.09962e-15
-5.5044e-16
-0.0340457
1.29483
1.37718
0.0310885
-1.58256e-15
-9.96605e-13
-1.57795e-14
0.172046
-5.55073e-09
1.28762
1.76463
0.991916
8.58929e-07
2.66331e-07
0.00416725
0.843238
1.52219
0.791071
1.25144
1.14983
2.83898e-11
0.988348
0.117195
-1.62213e-11
-3.22189e-07
0.0184819
2.37154
1.58988
7.36147e-07
0.505872
1.2184
1.46782
1.49043
0.31751
1.01286e-09
0.552366
-5.82863e-09
1.34284
-5.55972e-09
1.90091e-15
-5.79739e-09
0.0116237
0.994031
-1.24838e-09
0.981949
1.26822e-13
1.01516
0.440555
0.998124
-9.56819e-07
0.884986
1.07304
-1.44379e-07
0.684967
1.01311
1.54401e-05
0.42768
-1.0929e-08
1.39942
1.42758
0.144158
0.158098
0.139652
1.59772
1.59803e-06
0.903196
4.77474e-12
-1.01212e-15
0.9919
0.998834
3.28119
0.67027
1.20117
0.00322899
0.636399
0.874406
7.50383e-09
-2.68941e-06
0.226986
5.38916e-05
-8.58567e-11
1.66168
1.07227
1.53969
1.5448
1.60858
0.949795
0.122652
0.154533
1.63994
0.758784
0.158694
0.688636
0.0251539
0.00294933
0.173813
1.17192
0.266956
1.09424
-3.58768e-08
1.10166e-08
0.0335794
1.13056
1.15969
1.634
1.02037
7.07364e-07
0.111005
1.01432
0.121327
1.43662
1.55297
1.42995
1.34159
1.34149e-08
0.0984906
-1.22838e-06
0.978556
1.06104
0.993295
-3.57607e-12
0.990708
1.40576
8.1133e-14
-1.38492e-12
0.000586547
-5.40159e-06
6.00555e-06
0.0420046
0.0386244
1.03723
0.156294
9.29311e-09
1.48767
1.34865
1.37602
1.04433
1.368
1.5589e-11
3.62563e-08
1.00306
0.00991695
1.8796
1.47705
0.826871
-5.67687e-07
1.13888
0.0391382
0.0830957
1.09463
8.11555e-06
0.449295
1.02588
-3.12329e-08
1.54225e-08
1.03792
0.000347199
0.372261
1.48524
0.6427
0.0726358
0.892738
0.567539
1.00314
1.35833
0.0046348
-1.13936e-11
1.02664
1.6102e-05
0.764442
0.837883
0.0530461
0.610789
1.50574
1.18857e-05
1.31553
0.234551
0.114413
-1.6664e-07
0.00720799
0.00326656
1.05397
-3.62964e-07
2.3676
1.49556
0.736562
2.70535e-14
0.995159
0.00331188
0.681608
0.0981256
1.7217
1.39955
-1.08837e-15
0.0144518
0.194257
1.52533
-1.43332e-09
1.7195
0.427448
7.34783e-12
1.03515
-6.33037e-14
0.00902606
1.12537
0.558127
1.13396
1.04928
-2.23563e-11
0.00462739
0.253954
0.00359823
0.00146771
1.51437
1.32359
0.688039
1.51151e-09
1.42997
1.82422
7.97305e-12
-1.01586e-13
2.04958
-0.00782683
2.71082e-17
0.38614
0.00715966
1.00726
0.20284
3.26004e-11
1.00383
0.891404
1.6557
7.12975e-14
1.77696
1.65815
-6.37943e-09
-7.08516e-06
0.766031
0.0366742
7.39876e-07
1.78098
-5.57474e-11
1.4274
0.673885
0.000369221
1.27011
0.365576
1.24829
0.535406
0.139217
0.0129572
1.14987
0.972635
0.0208563
0.00251988
0.000533767
1.93574
2.64448e-12
1.27021
-1.89651e-08
0.413067
4.30328e-09
1.75234
0.898499
1.63063
1.27727
0.0341246
1.02017
0.886278
2.70483e-05
-8.24229e-05
0.215129
1.60882e-05
0.130443
0.0292391
0.171108
-8.75934e-14
2.5682e-10
0.0267862
0.00735172
2.11715e-15
8.39568e-11
0.419538
-0.00232196
0.415221
1.48404e-10
1.67708
0.804795
1.48817
0.645306
1.50883
1.46536
1.47957
-1.31312e-11
6.11413e-07
0.0156017
0.448442
0.352325
0.494542
4.25748e-08
0.986163
5.69782e-09
6.91158e-06
5.80642e-14
0.0226578
1.03947
2.06579
0.959805
0.40228
1.85962e-13
0.0755902
1.19954
1.54384
0.075616
1.26635
0.98777
0.174341
1.75422
1.47446
1.06285
1.05772
0.344698
1.01348
0.887701
1.6644
1.53199
0.624353
0.0199729
4.10928e-09
1.0246
1.03203
-1.339e-07
1.62013
1.59187
0.639359
1.02073
3.73585e-08
3.2359e-13
1.3614
0.327976
0.64142
0.733903
1.53832
1.50968
0.0427501
0.961071
-3.5197e-06
0.718352
0.486322
-8.33201e-13
1.62844
0.190409
1.26508
1.57694
0.116787
0.0415463
0.000463105
1.55129
0.446807
0.584729
0.859344
-3.14378e-14
-1.51636e-07
1.25364
5.35345e-06
0.0770066
1.20851
1.26798
2.10932e-11
-1.25102e-07
-0.0441514
0.61052
0.00686071
-0.0176092
1.47043
0.0144425
0.421928
0.000195174
0.246135
0.674435
0.533089
-8.35996e-09
0.933507
1.40297
1.39391
0.000541046
1e-05
0.473692
0.331206
0.0196632
-2.41666e-08
-1.02e-12
0.0247343
0.136659
1.40126
6.15259e-09
7.62285e-14
4.76697e-07
0.160807
0.766848
0.285524
0.0161383
5.95466e-11
-1.38672e-08
0.202708
0.0891063
1.62028
0.167531
1.50388
0.0746843
0.266788
3.14933e-06
0.0389076
7.59612e-11
0.213055
2.30237e-05
0.469797
1.59272
0.771786
8.66598e-07
6.60222e-10
0.969605
0.000138186
0.177822
1.0149
-6.54799e-09
0.726035
0.435691
0.0105104
1.44076
0.0595184
-1.61497e-06
0.779984
-1.62408e-06
2.11807e-06
0.29436
1.86098e-06
0.496011
-9.67336e-10
0.849607
-1.37261e-05
1.48457
0.0244551
0.0556772
5.02368e-10
0.704423
1.73847e-07
1.0264
0.950326
0.000710148
2.2396e-06
0.229271
-3.34592e-07
1.33773
1.13031
1.58242
0.792994
0.995959
1.51065
-1.63798e-07
1.69485
0.0421205
2.02591
0.327004
1.95131e-07
-8.96663e-08
1.71195
2.66362e-13
-1.5584e-11
0.485366
-8.82324e-07
0.0564201
1.25614
1.55458
1.69974
-2.20219e-12
-1.39741e-06
0.013321
0.986456
-6.55749e-09
2.16952e-09
1.55858
1.22925
0.223681
0.00748102
1.14175
-1.36272e-11
-4.07523e-13
0.000241517
1.42021
8.42468e-12
0.94364
1.58788
0.0433623
0.00392297
1.53097
1.37529
0.586562
0.142186
-5.43075e-07
1.7781e-09
0.0754052
0.00217866
-1.78419e-07
1.25737
-2.28781e-06
1.24528
1.69857
0.00160187
0.907483
1.64753
-5.04815e-15
0.00040716
1.23742
-2.03844e-06
1.40682
0.148169
-0.000903566
-2.56836e-05
0.224941
4.00315e-15
1.6806
1.52195
4.04581e-07
0.0374061
1.56359
1.56745
1.00349
0.326763
0.239739
0.00865504
0.0151845
-0.00158401
1.45412
3.04244e-11
0.0206536
0.73741
0.00877469
0.0786195
2.14105
1.29291
0.040025
1.36664e-10
0.594662
-5.34891e-09
-3.10554e-14
-1.42966e-07
0.0195409
0.0103953
1.62168e-14
-7.99888e-15
7.52875e-06
0.0277807
-3.20028e-06
0.00110786
1.4919
0.996714
4.23365e-16
0.755575
1.76662
-7.43298e-17
9.92685e-05
0.00359134
0.166415
1.24224
0.330283
1.52039
3.08963
0.050808
0.66556
0.00041712
0.987505
0.000341663
0.189989
0.000538086
7.0034e-08
0.939564
0.0175118
0.0626856
1.30199
0.389737
1.06074
0.796032
1.04137
0.644085
1.1532
0.00384297
0.268711
0.735213
-4.35922e-15
0.0728014
-8.02378e-12
0.00232169
1.30252
0.106832
0.966726
2.11763e-11
7.35676e-06
6.10596e-07
4.72492e-11
-7.44636e-06
1.71187e-07
1.70259
0.509852
-0.056524
0.880415
0.39238
-3.30808e-07
0.0809273
0.022125
1.30652
1.42535
1.62973
0.0804129
1.03412
0.444889
1.04058
1.50963
1.51889
1.48796
0.196025
1.40782
1.31254
-1.00518e-14
1.28406
0.973017
3.12002e-10
0.000955601
0.985896
0.111879
0.00898356
5.34761e-09
0.8042
1.06423e-11
-4.4289e-08
-2.7676e-13
0.437284
0.861785
1.9112e-08
0.949498
0.0025243
1.60503
0.649602
0.230066
1.55402
1.58783
0.406319
1.24536
5.45963e-11
0.0203558
0.0119024
0.080903
1.00503
-7.65723e-12
0.402352
-1.49015e-05
0.229323
1.02943
0.0499247
0.19787
-7.66806e-08
2.85214e-14
0.529871
0.391228
-3.74992e-11
0.000783235
0.0519814
1.34612
1.50686
6.19373e-15
0.957535
1.55547
-3.71162e-06
-6.67025e-05
1.24992
0.0237691
0.0104516
2.11434e-10
-2.16518e-14
6.8412e-10
-1.26293e-10
-2.71474e-09
0.651664
3.15358e-06
1.47976e-07
1.45318
-3.77057e-12
-1.1705e-10
1.02979
0.0826075
3.30934e-14
0.770866
0.885791
-3.78475e-12
-1.89384e-09
0.302059
1.02626
1.86658
-0.00116267
8.6195e-11
0.520876
0.195921
0.904912
0.000143793
1.13588
-1.11841e-07
-6.66678e-10
1.10793e-11
3.05465e-12
-6.1253e-07
0.0185118
0.481987
-1.41523e-12
0.0095919
1.36335
-6.82011e-15
1.18826
5.33463e-08
1.14901e-10
0.00247301
-2.03039e-10
0.540109
4.58834e-07
1.46467
-9.27565e-10
1.35046e-06
1.87974e-09
-7.36563e-14
1.93324e-15
4.54169e-09
1.68365
4.33759e-11
0.00300933
0.0174349
1.45493e-11
4.4041e-05
0.975667
-7.27902e-14
2.29152e-06
1.62146
1.45257
0.634702
0.296822
0.00892491
0.0937415
0.00109827
1.25012e-13
1.70262
0.97194
0.262356
3.93401e-07
0.528559
1.0421
1.43638
1.01764
0.902243
3.48924e-12
0.502124
-1.37414e-09
0.0735515
0.958969
0.000112575
1.70785
-4.85589e-12
-5.26867e-05
0.000806979
-4.62563e-17
0.976271
3.10316e-13
1.35325
-0.0692113
1.78581
1.08481
-1.61818e-11
2.00085
1.4902
0.960796
-1.38862e-13
0.826154
1.06469
1.57331
0.560879
0.941666
1.59174
1.69222
1.72658
1.18318
1.49065
-3.91828e-12
0.273735
1.01975
0.96421
0.0531984
0.646294
-5.15687e-08
2.88371e-08
1.38371e-13
1.02398
1.66066e-14
0.448264
1.45371
1.54599e-05
7.01501e-07
0.117955
0.176035
-0.073351
1.3543
0.857145
7.35122e-11
0.729183
0.990309
-8.81429e-05
-2.2577e-06
0.403471
1.14071
1.16438
-0.0198913
-9.62849e-11
1.02791
0.965447
1.75112
0.994449
0.908977
1.36539
9.45659e-08
0.803089
0.770185
0.0512652
0.00297882
0.989047
1.286
-1.09439e-13
-1.14688e-06
1.6401e-05
0.717818
0.65929
-4.09788e-10
1.48138
1.34085
0.0563827
1.03321
0.0992487
0.642789
1.00229
-1.26781e-06
-5.26219e-13
1.50889
7.87959e-11
1.43859
-3.34318e-10
0.0826417
-8.14857e-17
1.42069
0.000338841
-6.71098e-17
0.548263
0.933175
3.55631e-11
0.000941103
0.980058
1.26467
0.914079
1.05256
1.51703e-09
0.862009
0.518501
1.47536e-06
1.54089
0.00842487
1.11945
-6.4553e-16
0.00310247
0.999466
0.0170318
0.0991064
-0.0174542
0.0229574
-5.13234e-12
-1.16161e-08
0.91465
0.979426
1.36872
1.42441
-4.18357e-11
0.415548
1.39881
-3.54272e-09
0.171672
-5.44645e-15
0.714978
1.55724e-07
1.02763
1.12851
0.953845
1.2705
1.54803
0.0093079
1.16379e-07
0.617776
0.892182
0.993872
4.98433e-13
0.366917
1.0556
1.31776
1.06857e-15
2.15862e-07
0.0783815
0.121254
0.947898
0.198845
-2.09164e-11
1.2093e-05
1.57029
-0.000192712
1.11252
1.03971
0.0512302
0.55964
0.0279778
1.48635
0.106988
0.000952021
-1.41374e-06
2.6178e-12
0.821919
0.00635084
0.159028
-5.89787e-05
-5.67539e-07
1.5059
-2.28513e-15
1.42065
-3.20003e-09
0.00896117
0.0448235
0.717943
1.47404
1.531
1.29405
1.01908
0.326735
0.244893
0.790237
-2.18111e-07
-0.0619598
1.25592
1.07177
7.96664e-07
1.54515
-4.40155e-16
1.02176
0.85217
1.37838e-08
0.944334
-0.0419541
-7.12098e-08
0.00762298
1.52942
1.07858
-0.0850261
0.841833
1.07033
1.60118
0.000739589
0.00319198
4.68375e-09
0.00117094
0.757751
1.5006
-7.00616e-14
0.526623
0.908244
-7.02898e-11
0.977191
1.59636
0.0660083
0.0481069
0.770692
-5.00048e-09
0.861898
0.00112155
-0.0756306
0.181789
-1.86736e-08
1.69834
0.0865827
1.59044
1.43616
0.0061701
1.46133
1.75256
9.46115e-10
-0.100657
0.590306
0.535831
0.526534
1.47026
0.0895436
2.9271e-09
0.813629
1.29577e-16
0.953185
1.67139
0.102914
0.000323107
0.0105098
0.00188886
-4.39354e-14
0.000257694
1.43716
-1.56331e-15
0.246961
2.72808e-12
-5.39451e-10
1.81438
-4.97288e-10
1.55191
0.0971085
0.0385946
0.0905373
0.0539712
0.997673
1.04352
0.303002
0.846995
-2.41663e-05
1.10838
3.42148e-11
-2.39993e-05
-6.09383e-09
0.148751
0.0477853
0.000819056
-1.92779e-15
-0.000584236
1.78473e-12
1.08067
0.0319123
5.0012e-11
0.863877
8.8956e-13
1.32583
0.0756977
0.793864
0.273545
2.87343e-11
0.526093
1.39105
0.00059005
1.45831
1.29103e-05
2.60755e-06
0.327861
0.00473705
0.113186
1.30212
-4.94955e-07
0.0148752
1.06692
5.34631e-08
-0.0067672
0.197572
1.58176
0.995733
1.29085
0.000996975
1.11686
0.904984
0.683932
1.43248
0.0435635
1.58482e-07
0.220324
1.52732
-2.20196e-11
0.75798
0.0526224
0.9609
1.4111
0.697609
0.64298
0.300909
1.12163
1.71497
0.751713
1.09013
0.29149
0.0256758
1.67796
0.00277159
1.53067
0.00668978
0.00173802
-4.19764e-09
0.529721
0.216889
1.28361
0.368904
0.0259233
0.000162661
0.000397945
0.437547
0.190068
3.76373e-10
0.00958608
6.96995e-12
-0.0497494
0.364126
9.80614e-07
0.747615
0.446144
0.297956
2.00679e-15
1.39851
0.279364
1.60978
1.19621
0.013771
1.05386
0.678363
1.52652
1.15135
0.506391
5.96997e-07
0.716905
0.91454
1.52478
0.199781
1.79014
1.28517e-06
0.555125
0.0936989
1.50823
1.51387e-13
0.0178145
0.589392
0.173478
1.01158
0.0475101
1.37436
1.14514
1.51949
1.20562
1.45683
1.16852
1.36618
1.64498
1.18033
1.13194
0.247302
1.43561
0.509976
0.00496345
1.48938
0.00496684
0.986999
1.50179e-10
0.0112779
4.43335e-08
1.39877
0.497588
0.019248
0.223216
0.972716
0.145264
1.84292
1.47244
0.0196832
2.42769
-2.38362e-09
-1.10858e-10
1.36535
0.21891
0.000877499
0.213953
0.958004
1.21801e-08
0.218994
0.376253
5.68802e-10
1.4848e-14
1.10278
0.321453
0.861611
0.271257
1.40109
0.900573
0.941881
0.29912
0.805968
-9.26694e-13
1.41276
0.251929
0.67672
0.0124172
0.522578
0.08555
1.1102
0.00598118
1.56908e-17
0.00608105
0.955449
1.47671e-13
-1.23498e-10
0.666589
1.08877
0.622203
-2.25685e-05
0.274801
0.927862
-2.86249e-09
0.687383
0.0598213
-9.03421e-12
1.26553e-10
1.0057
0.00107124
-0.0552582
0.589865
0.466095
0.947786
0.635818
-7.7719e-12
-4.46498e-11
-7.69517e-07
0.10627
1.01035
0.00518368
0.000220983
1.04059
-1.72875e-06
-3.9859e-06
0.0353764
0.00497018
-0.00023383
0.721226
-0.0143538
0.651402
1.56355
0.000921973
0.538767
0.870452
2.80537e-08
0.288337
0.0755298
0.599491
0.0940677
8.32052e-06
0.462475
3.97647e-07
1.66384
1.54373
0.00530387
1.63489
0.000384619
1.55854
0.560879
0.499159
1.0554
0.0634414
0.409251
0.785317
1.40134
1.23646e-07
3.40549e-12
0.017545
-2.84561e-16
0.0180428
7.05135e-12
1.12728
0.420176