/*--------------------------------*- C++ -*----------------------------------*\
| =========                 |                                                 |
| \\      /  F ield         | OpenFOAM: The Open Source CFD Toolbox           |
|  \\    /   O peration     | Version:  4.1                                   |
|   \\  /    A nd           | Web:      www.OpenFOAM.org                      |
|    \\/     M anipulation  |                                                 |
\*---------------------------------------------------------------------------*/
FoamFile
{
    version     2.0;
    format      ascii;
    class       volScalarField;
    location    "2";
    object      T;
}
// * * * * * * * * * * * * * * * * * * * * * * * * * * * * * * * * * * * * * //

dimensions      [0 0 0 1 0 0 0];

internalField   nonuniform List<scalar> 
26625
(
-2.13901e-24
-1.11026e-12
1.41129
3.71599e-10
4.55791e-28
-1.12662e-23
4.34634e-11
3.5611e-22
2.47842e-11
1.07028e-07
-1.37741e-32
-1.7624e-08
-2.64446e-24
4.27325e-15
0.507093
-1.17556e-24
6.37893e-17
0.00112271
1.53986
-1.87736e-07
-7.1192e-21
3.82173e-20
-6.52367e-34
3.0095e-16
-1.21111e-22
7.00821e-05
1.35839e-09
6.07066e-18
-1.23893e-24
9.60362e-13
1.25202
0.000743291
-0.00197516
0.974674
1.70095e-28
1.12428e-29
1.2175e-16
0.0285482
2.31967e-13
5.67281e-18
1.1258e-17
0.000524048
1.91441e-15
1.88971e-12
-6.15116e-23
1.79972e-10
4.33292e-17
0.538626
2.26656e-18
-2.1515e-32
1.80529e-09
0.985821
-4.34463e-08
2.25648e-23
0.910725
-1.30601e-12
4.75599e-10
2.93562e-09
1.11315e-19
1.49618
4.97101e-40
-3.47505e-26
-2.68113e-22
1.89812e-13
0.00045723
-7.16911e-38
3.94849e-09
0.0982242
-1.13005e-08
-6.12643e-12
1.43533
-1.10777e-28
-1.74257e-11
-5.66025e-26
-1.85965e-34
6.65028e-13
-4.57654e-31
3.96776e-37
-0.00148564
0.00196497
0.947686
5.6381e-16
-9.74233e-12
2.13555e-08
1.21822e-13
0.000611615
-1.11299e-29
1.84753e-36
4.0601e-19
1.54934e-08
0.112605
1.14355
4.00597e-11
3.70171e-13
4.71211e-08
6.53199e-09
0.0073512
0.654463
7.13978e-13
-0.000726303
0.0786735
0.000253023
0.286743
0.0049044
-1.19423e-23
0.426905
-3.17496e-36
1.02284
0.00493678
-1.60644e-23
8.00404e-10
1.12646e-17
8.47747e-11
1.3765
0.000108591
1.52175
-3.1408e-32
-1.15669e-30
3.95764e-18
1.51724
0.241217
0.0275576
2.49594e-29
3.70208e-20
-5.73021e-21
0.0063626
-0.000794661
-1.50678e-39
2.55613e-09
7.19539e-05
0.923471
1.43649e-08
1.85332e-13
-5.88604e-24
-2.94403e-21
1.81249e-12
3.01046e-14
-1.7326e-36
2.60613e-09
-3.93261e-19
0.000570149
5.36038e-08
-1.06323e-19
8.25854e-12
1.59966
1.14689e-09
-0.000161063
0.0455717
4.30899e-17
3.41792e-37
1.38844e-10
-0.000715256
-0.000243242
2.31401e-13
3.31956e-39
2.6744e-09
-0.00141808
5.69286e-07
-0.000835594
0.0129853
2.30584e-17
0.690684
-5.96367e-05
0.00276605
-1.18303e-33
-1.02736e-22
0.181583
0.050241
-7.95458e-17
1.47547e-31
3.27987e-08
-2.68178e-32
-2.19973e-13
1.55557e-11
1.97373e-38
1.20611e-07
0.0638505
5.53491e-13
0.00968975
2.34895e-33
-7.1137e-16
-8.87304e-17
-1.07141e-32
8.76339e-10
-7.86399e-13
0.0190168
4.36099e-13
0.00120667
0.312189
0.00393573
-1.20633e-08
2.06161e-07
7.98623e-10
0.000318344
3.7801e-11
-1.16956e-25
1.49316e-06
-1.24758e-20
0.00119033
1.1577e-30
4.20326e-19
0.0554919
2.74693e-31
4.22093e-16
-1.94222e-32
-5.40072e-08
6.21328e-06
1.52558
4.6072e-20
1.14038e-07
5.79975e-32
-0.000474261
-2.69965e-25
0.433994
-2.25485e-23
-1.54401e-05
-9.74932e-11
3.71898e-18
1.0113e-16
0.287533
1.47375
1.13483e-31
-1.1012e-33
1.03634e-16
2.72987e-18
0.0131657
5.50937e-28
-0.000253374
9.73977e-17
-9.00464e-11
0.536686
6.17832e-17
1.3368
5.2339e-14
3.05989e-32
3.90821e-17
4.74526e-10
1.76336e-15
1.08638e-33
0.47541
8.92484e-11
1.27611e-09
2.54072e-08
-1.28275e-32
1.00726
1.95585e-13
2.35871e-20
3.96494e-30
-9.04951e-34
1.41373e-10
1.47926
1.3401e-18
1.27971e-13
6.2404e-06
-4.02515e-20
6.80005e-17
1.53566e-40
-7.44958e-19
1.49152e-12
0.600494
-1.96539e-24
0.01113
3.54614e-10
-2.8691e-14
1.36796
4.7206e-08
1.05074e-29
5.33608e-27
1.05817e-15
4.52911e-08
2.22871e-15
0.0197072
1.20596
5.62361e-17
-0.013172
3.61961e-38
-1.23158e-08
1.86031e-10
7.58961e-11
3.0987e-16
9.76159e-21
4.4558e-33
4.14309e-10
-1.82928e-05
5.41044e-09
-7.15929e-32
1.25436e-08
-1.5584e-25
0.00236587
6.2823e-18
-3.47493e-36
2.80858e-19
0.00950194
7.94492e-13
3.0827e-11
5.99811e-37
-5.65427e-38
-1.94894e-06
-1.25506e-30
1.15119
0.000278288
-1.07842e-19
1.4821
-6.68543e-26
3.86717e-10
9.75667e-40
-9.16045e-31
2.87088e-23
2.38901e-34
2.75594e-20
-1.51478e-17
2.00672e-40
2.29143e-38
9.05363e-10
5.71767e-11
-1.69207e-10
-6.76324e-11
1.23177e-16
9.33786e-08
9.54333e-12
-9.64837e-39
2.54003e-14
2.31662e-17
6.76927e-19
5.96931e-37
-1.2267e-11
-3.69181e-07
0.0251538
1.68655e-13
6.36444e-16
-3.28635e-09
-5.9257e-24
0.0531169
1.01907
4.35795e-10
1.61552e-18
4.74937e-09
7.21493e-18
-4.62874e-40
0.0349466
0.117379
0.0919711
0.00203022
8.07096e-16
3.04836e-07
2.80728e-09
4.48467e-07
1.07196e-12
1.26093e-19
3.50179e-16
1.53165
1.49765e-16
1.27191e-16
1.6307
-4.68387e-14
1.84753e-09
2.34497e-12
0.00771089
0.684987
0.077947
-5.65397e-05
-4.89078e-31
-5.52265e-11
1.09434e-17
0.0208745
3.81424e-12
1.44964e-13
0.00112932
0.00408496
6.07901e-14
0.12679
1.18635
-7.15501e-11
2.51524e-33
-2.44693e-23
0.000551355
-8.93637e-12
1.34209e-34
1.28547e-36
3.81061e-08
-0.00415675
1.69993e-06
3.05797e-10
1.40888e-07
3.72866e-10
2.45649e-05
0.0155982
3.71543e-14
8.14372e-18
9.77207e-17
-1.17539e-36
-3.6818e-21
3.56835e-16
5.02638e-09
3.76851e-15
1.25466e-07
3.46802e-08
2.55938e-16
-0.000320309
1.6161e-10
-5.92971e-09
0.0512411
3.32644e-09
1.08502e-31
1.96915e-24
1.24594e-15
0.0103184
-2.32562e-19
-6.09042e-15
-0.000113693
9.28616e-10
0.000134821
-4.96139e-26
-3.6878e-31
1.28773e-14
8.09026e-10
-0.00289146
2.135e-09
1.79609e-08
-5.1284e-29
9.16111e-34
4.81322e-27
0.00520857
0.00818242
-1.149e-15
1.83677e-22
0.679946
-9.00713e-12
-3.92851e-33
-7.91816e-10
3.28606e-07
2.61755e-10
6.98509e-15
-1.25148e-31
3.09902e-08
1.6999e-08
4.07572e-34
7.83411e-15
3.04171e-21
2.10757e-08
1.38587e-10
4.2093e-31
1.2137e-10
1.40015e-08
1.76576e-09
1.2804e-20
-4.95676e-41
5.45205e-09
1.53351e-18
2.65378e-09
-4.05813e-09
0.217015
-2.56105e-31
0.00040544
2.83001e-19
1.37487e-19
1.67981e-13
-1.54348e-34
-6.08646e-24
1.2213
3.57603e-11
0.54329
1.02999e-23
1.79903e-10
-6.63919e-15
4.32565e-07
3.54297e-40
1.21261e-08
2.87915e-12
1.66708e-36
-6.23303e-30
7.2837e-06
5.56503e-16
-2.06501e-12
-9.51851e-15
-2.25388e-27
-0.000347781
1.34212e-09
-3.09513e-06
-4.35859e-34
3.24505e-05
-2.93988e-27
0.572691
-5.06042e-33
3.36789e-19
2.92438e-19
6.18738e-13
4.43687e-09
7.56018e-12
-4.98117e-24
1.47933e-07
-2.16013e-05
-2.57865e-24
5.02455e-09
1.77914e-32
0.286392
2.54119e-05
4.1793e-06
1.69761e-11
-2.36629e-24
1.51011
0.434955
0.00297672
8.4977e-12
-0.000193459
7.99899e-34
7.56544e-14
0.359806
2.40967e-09
3.78987e-21
4.21779e-13
0.0476683
5.70771e-05
0.00614328
-1.05979e-24
-4.56581e-31
-2.94299e-12
2.78839e-21
-2.72172e-23
0.000553661
0.000432151
0.000897114
-4.08096e-36
-9.74231e-15
5.32936e-13
-1.3343e-32
0.000174777
1.18343e-11
-2.93084e-11
1.6144e-21
-4.07888e-23
1.43186
6.73488e-08
-3.55877e-13
9.91362e-06
-7.45249e-05
1.22854e-07
1.20348e-10
5.1541e-10
-1.11496e-24
1.69513e-14
0.00104198
-1.16127e-31
1.53711
-1.6673e-13
3.26657e-12
5.90355e-20
1.06882e-17
-4.01814e-22
-9.39181e-26
0.000678226
3.17318e-23
0.00103791
6.92437e-16
-3.5835e-12
-2.39421e-11
-7.37985e-05
6.86528e-10
1.08233e-07
0.0573944
3.56916e-16
7.88255e-18
0.268596
1.52844
-3.35196e-15
0.0886663
1.15487e-33
9.64287e-10
0.00161175
-1.07325e-31
-2.59958e-22
3.09481e-25
1.09616e-07
3.72428e-12
2.92266e-05
1.45438
1.61746e-36
0.258455
4.6863e-28
3.18336e-18
-2.94732e-29
0.828832
-1.03981e-17
6.11802e-10
1.27062e-13
-1.42901e-18
8.15078e-07
6.98008e-19
1.1377e-06
1.3915e-17
2.3673e-14
1.41782e-07
6.57924e-18
9.87918e-33
4.24182e-21
0.122844
0.414722
1.1092e-07
1.71583e-08
8.04514e-18
-6.35884e-28
6.58296e-11
0.767667
7.37881e-12
5.3027e-31
9.5567e-11
0.367596
1.26349e-15
0.001263
-4.06979e-16
0.102426
0.0257795
-1.06031e-20
-0.00429775
1.53152e-09
1.98072e-05
1.32598e-10
0.423624
-2.38626e-23
0.0950059
5.45648e-11
-1.52464e-28
2.40728e-13
9.62199e-09
1.0212e-06
1.44781
2.05335e-20
1.83931
1.30903e-06
-7.28003e-10
2.54444e-33
-7.83047e-14
8.43749e-11
7.71008e-20
7.35905e-19
5.08675e-30
3.85098e-16
7.58814e-06
6.49004e-12
9.62515e-11
-6.88188e-34
-1.60139e-24
0.0105717
1.43441e-21
3.86191e-09
1.0956e-07
7.00266e-18
1.31036e-13
-1.13221e-24
-1.22937e-31
-0.00192735
3.36659e-21
1.10382e-28
0.0236464
0.065643
1.61615e-09
3.22555e-18
2.03145e-13
0.0104272
2.05567e-06
-5.00407e-27
7.5111e-19
0.119409
-2.66471e-25
-0.000632583
2.45289e-08
8.31997e-07
0.0987562
1.6119e-11
3.26278e-32
1.00241e-12
6.46037e-09
2.08319e-28
0.024179
3.15513e-37
-1.52844e-27
-2.09138e-05
0.015561
1.00311e-16
1.02898e-26
4.07851e-08
-8.55895e-23
-9.9288e-11
-5.56548e-30
4.40055e-17
-6.78718e-35
0.390654
1.53403e-20
-4.65716e-08
-2.99005e-13
-2.59977e-32
-6.492e-38
5.28349e-23
2.01824e-17
-9.914e-30
-1.8322e-22
9.96733e-19
0.135523
6.67054e-17
4.06304e-10
1.74045e-16
3.22981e-13
9.62278e-21
4.56522e-14
1.90862e-39
1.30434e-10
-6.66311e-27
1.23271e-09
7.1473e-08
-0.00423891
5.65646e-36
1.71712
2.96738e-25
-1.80265e-37
-1.03466e-35
2.5949e-26
-6.2186e-39
0.300141
0.0732726
2.11387e-14
8.0311e-19
1.40871e-05
-4.46611e-08
1.37215e-38
3.85831e-08
0.0209581
1.09974e-32
4.77563e-08
8.21184e-21
3.21406e-12
6.28599e-19
6.10863e-21
3.16905e-05
1.18277e-15
-2.90102e-30
1.49161
1.31153
0.783499
7.44018e-11
5.09628e-31
1.21363e-14
5.74536e-14
1.14923
9.26173e-14
1.91945e-20
-9.8858e-38
0.0117114
1.92781e-12
2.17789e-11
-0.00312941
2.39388e-13
0.121935
1.48369
-6.69918e-29
8.24486e-17
5.85135e-10
-1.61998e-20
-5.82555e-14
6.79718e-11
4.70218e-07
-1.85217e-28
9.16852e-20
2.80294e-10
-8.60443e-13
-7.27389e-19
-1.40453e-09
-1.77069e-34
6.12398e-30
-0.000220131
-2.4296e-30
-2.71163e-24
-1.11072e-23
2.764e-09
6.37735e-10
9.52595e-34
1.50693
1.39758e-21
2.56981e-10
-2.6772e-23
0.240822
0.899257
1.99527e-22
-0.0106877
2.55788e-12
-7.06725e-07
1.1128e-21
3.04209e-18
2.3957e-17
6.84056e-24
1.16584e-13
3.02012e-05
1.91631e-14
8.2146e-12
1.2959e-10
1.45041
0.074364
6.50303e-09
0.255515
3.03326e-17
2.44158e-13
6.34457e-12
1.13016e-12
1.48993
-4.77125e-10
-0.00156098
0.00439653
1.23872e-10
3.34988e-12
-1.85454e-36
8.14745e-16
2.58955e-31
4.66628e-27
0.000212759
2.79809e-10
-1.74643e-28
2.12666e-18
-8.6788e-31
3.86724e-11
8.65146e-11
4.16079e-06
2.01821e-15
2.53022e-39
6.79754e-31
0.230423
6.16438e-15
1.6839e-32
0.0702858
6.74237e-07
-4.90387e-23
2.7071e-10
-3.64566e-09
-9.48001e-20
0.00398335
1.56072
0.00191108
-3.09601e-30
4.66313e-19
2.16225e-09
1.25787
2.24987e-27
1.62575e-17
-6.30814e-29
9.87214e-08
5.97544e-19
2.99708e-07
-3.25636e-25
-6.31996e-26
0.241737
1.67812e-06
-4.82301e-30
1.53128
3.65539e-09
5.60296e-09
-3.2971e-28
-5.38813e-39
2.17062e-07
2.46801e-16
-1.3681e-18
2.55229e-06
6.93951e-13
1.45517
-5.62899e-08
5.74812e-30
8.25647e-19
3.30612e-20
5.59217e-17
1.55952e-08
5.2669e-10
8.66575e-33
1.46174
8.19291e-34
-1.89912e-07
5.25645e-18
-1.3287e-21
2.32085e-10
2.44196e-18
1.57853
-1.49188e-40
0.855681
8.19337e-13
2.57939e-20
1.49486e-20
5.15591e-16
0.00743159
6.29803e-11
2.18932e-18
-2.56106e-05
5.53666e-13
-1.2717e-33
-6.16505e-17
-1.13432e-30
1.34553e-16
4.72502e-32
6.72817e-15
-4.60971e-32
1.01029e-24
1.29574e-11
7.68013e-10
1.43139e-08
4.32289e-19
3.95305e-13
-1.29501e-33
1.08033e-28
0.755869
2.58677e-11
-5.15624e-21
-1.93093e-23
-4.46942e-10
-2.02655e-33
1.69053e-13
8.33155e-18
2.16307e-08
-3.19056e-29
2.04148e-38
4.96134e-13
8.23652e-05
3.30085e-33
-6.04944e-20
3.70372e-22
0.0321814
0.00599544
-2.7372e-12
2.54626e-36
-3.69554e-10
-2.02134e-37
-7.63595e-13
0.0410556
1.37376e-14
8.99046e-11
8.6025e-16
4.63965e-20
3.25081e-33
1.20539e-18
0.341715
7.46002e-08
-5.08686e-16
-1.45369e-32
9.03278e-10
-6.85852e-38
4.07326e-09
0.000157494
-3.03877e-10
-5.37962e-14
1.08506e-12
-4.55272e-31
2.06118e-20
0.0432237
-1.67201e-06
-8.52422e-09
1.558e-35
1.18933
2.00168e-35
-2.80095e-10
2.06273e-06
7.88155e-15
5.21138e-28
-1.66716e-24
-1.28588e-29
0.736777
-0.0155827
0.865681
5.15258e-18
5.76344e-26
0.00665316
0.906893
0.958698
1.03383e-16
6.13194e-30
-1.49138e-35
7.54049e-05
8.00432e-20
0.247273
2.52376e-10
-8.77335e-17
4.51356e-10
2.24836e-22
-8.62145e-20
0.00358837
6.85667e-34
1.02145e-17
-1.76525e-10
0.961507
0.344265
7.99913e-25
4.25601e-26
0.152908
2.37161e-33
3.57686e-30
3.97524e-16
2.26302e-36
0.037464
1.09321e-05
-1.54393e-24
1.46473e-18
-3.71485e-25
8.58578e-20
4.04154e-10
-0.0016153
1.02933e-17
-4.52107e-32
2.11211e-17
1.87831e-07
-1.48914e-26
2.47597e-14
-9.11716e-14
2.92363e-11
0.00723597
-8.99414e-12
-0.000527412
3.53744e-22
-7.69306e-30
1.24197e-17
2.95369e-09
1.33386
1.04879e-31
-1.26833e-13
-0.00310005
4.10978e-34
0.746298
-4.60242e-25
-3.99675e-25
7.14662e-15
5.47299e-10
1.48931
0.0672171
2.18953e-23
1.41431e-17
0.304026
1.50742
2.39547e-14
4.15706e-09
0.00872962
0.0622701
0.91997
8.55484e-33
-4.55759e-11
2.8165e-16
-3.00087e-25
-1.0596e-12
2.88871e-18
-6.97985e-23
0.832887
0.0124563
-4.83202e-09
1.89128e-34
2.86924e-08
4.03957e-16
2.84639e-17
1.46355e-19
8.45591e-09
2.19126e-18
3.96257e-15
-5.2807e-25
0.0147472
2.87045e-37
2.52644e-06
-1.5053e-30
1.45597
1.48222
0.148679
1.50439
2.13962e-27
6.65635e-13
-2.56021e-33
-5.51308e-33
0.00030742
1.26538e-10
-3.21961e-20
5.87528e-14
2.53034e-09
2.15089e-08
-2.53484e-11
2.509e-11
4.53601e-05
2.5533e-20
0.000835434
3.81021e-27
-1.04038e-08
0.199121
0.355898
4.18455e-18
1.98398e-33
2.81844e-15
1.40961e-29
0.00195791
5.20577e-38
0.681452
-4.75015e-10
1.94167e-16
2.47116e-31
1.33427e-16
1.89663e-11
-7.71052e-16
5.43322e-18
0.00205253
2.2202e-30
-1.25514e-05
5.1989e-05
1.02802e-08
0.0305767
0.0904778
-7.64659e-10
-5.20391e-31
1.76762e-17
0.000690063
8.55596e-35
1.60126
6.48783e-09
3.05948e-20
1.36587e-31
6.42975e-11
1.50404
2.60956e-12
1.38724
2.58384e-09
4.83786e-10
3.1232e-08
-4.95852e-30
2.32894e-30
8.37866e-08
-3.15731e-05
4.67768e-19
0.0050355
1.71011e-22
8.56281e-32
-6.80672e-37
7.00082e-26
1.90476e-07
0.000260405
-1.18588e-19
1.36188e-14
3.55637e-32
5.69243e-17
1.26707e-14
-6.61311e-32
1.35317e-10
5.21923e-18
5.79839e-08
-3.73789e-06
-9.561e-07
0.314224
0.00203078
0.0113233
0.988815
9.85605e-16
-1.68193e-26
1.05424
1.52533
3.83437e-36
-2.92295e-14
-7.20069e-13
1.50338
6.58898e-08
6.96336e-18
-1.50927e-36
6.9625e-14
0.000474637
-0.000202276
-0.0387688
2.35488e-06
0.238824
1.3369e-11
3.71131e-08
2.01395e-06
1.04389e-16
2.4974e-35
1.53477e-08
0.510997
3.82253e-15
0.00490154
4.24094e-10
1.18169e-24
6.5096e-08
1.51479e-17
-3.55525e-19
1.78246e-18
0.522999
-4.30496e-16
0.154449
8.67781e-26
6.62129e-11
-2.50262e-16
-1.71755e-26
6.69018e-09
1.95928e-12
4.04028e-10
1.07749
7.62683e-10
1.86198
1.58708e-16
3.00299e-36
4.13419e-21
1.4973
2.76468e-08
-0.0017015
3.2441e-11
-2.23308e-27
5.69028e-38
-1.05203e-20
4.46933e-18
6.36915e-13
1.42731e-16
-1.44526e-29
3.13877e-08
-4.72164e-17
1.87635e-08
6.82762e-21
2.68067e-13
1.98387e-07
2.81244e-15
1.35881e-09
1.63227
2.4366e-31
-7.81234e-39
-2.77218e-20
6.75857e-13
6.43423e-10
8.79743e-20
1.89657e-11
1.61893
4.38119e-10
4.76552e-13
0.0974827
0.214321
0.849414
3.28861e-25
3.15516e-11
4.29237e-11
-3.69602e-16
2.82472e-29
7.7623e-15
8.67154e-11
2.82111e-15
4.4698e-06
3.18101e-16
1.26962
-3.96607e-21
1.00836
0.00425452
5.50886e-08
0.136854
1.6627e-38
-0.000270837
7.53198e-10
1.4976e-38
-9.25021e-17
-1.97302e-20
2.84159e-13
1.00116e-18
-7.22929e-22
1.24076e-12
-0.000306158
1.0397e-12
-3.891e-39
1.0008
3.97318e-12
0.000239784
0.436332
0.624169
2.2502e-11
0.00351331
4.74472e-18
1.24784e-22
-3.4279e-28
4.79062e-40
3.15802e-19
5.69594e-18
2.36039e-14
-7.81929e-13
-2.96017e-40
0.371012
3.87697e-40
-2.06446e-08
-5.01203e-36
0.0124954
0.00144122
6.86566e-10
-7.83242e-29
-3.44712e-33
1.05679e-18
0.00784563
0.395445
2.47875e-09
8.20115e-15
2.31094e-10
-2.64172e-31
-1.5752e-12
6.76393e-13
1.4192e-08
0.236186
-5.35006e-25
-0.00635089
-2.48881e-18
3.30241e-19
8.69635e-12
8.40105e-34
0.0494005
0.00135658
0.00149113
1.0854e-07
-0.00340128
8.38989e-08
-2.28809e-23
-0.000140704
-0.00616993
0.000180518
-9.95926e-29
2.05289e-10
4.44503e-28
3.83324e-11
2.64424e-13
-1.80836e-24
0.0286348
3.24991e-17
-1.90954e-12
3.07321e-14
0.0821402
-5.19975e-14
9.98629e-21
1.34425e-11
0.271419
8.07503e-34
0.148256
-6.87304e-11
1.74222e-25
-1.24998e-34
-8.02653e-32
0.00025056
0.635096
2.7032e-16
1.67671e-09
1.47536e-11
2.22725e-13
3.7357e-24
1.2697e-37
1.26066
0.000356109
0.000182893
5.1124e-10
1.6076e-10
1.64985
1.54704e-17
8.5969e-09
2.98283e-18
-2.03876e-25
5.5456e-14
1.30044
-1.40739e-10
3.02146e-18
0.0164766
9.44516e-10
-3.24368e-11
3.75448e-34
6.59089e-09
1.48147e-11
2.95216e-18
1.38661e-22
4.55458e-08
1.01103e-09
3.49946e-11
3.11211e-21
2.758e-32
6.60912e-07
1.52871
5.40853e-32
-2.45314e-12
2.53396e-36
1.10642e-27
-3.24134e-18
1.39904
2.56701e-16
0.162208
1.59919
6.19811e-36
-1.06653e-13
-0.000110377
-6.28751e-30
0.185169
1.44857e-20
-4.08621e-06
0.603328
1.57025e-09
-2.34022e-06
-8.60528e-07
0.00814705
1.45165
4.81074e-26
4.31301e-14
2.66683e-32
6.2272e-14
-0.000236937
-7.25547e-08
1.98324e-15
1.41807e-21
0.0492704
0.984645
0.000138574
3.85876e-08
1.37747
0.257276
0.00360519
8.29707e-11
-2.89434e-26
4.12145e-09
1.09122e-19
-1.0336e-27
-2.66114e-06
3.47087e-16
6.82095e-13
1.7898e-10
0.0218948
5.57484e-08
-4.16328e-06
7.0507e-18
-3.99068e-27
-5.02995e-05
0.746383
3.40703e-27
2.24573e-37
1.72166e-17
2.83966e-09
5.10541e-15
-1.31805e-19
2.5164e-08
3.06289e-10
2.85862e-13
-1.64941e-17
0.000817773
1.90333e-16
-1.97064e-13
0.965983
1.19102e-16
1.56595
7.38989e-13
0.000834086
2.76918e-15
2.10611e-18
-3.62398e-15
-5.92004e-16
-3.1988e-34
1.45184
-4.33656e-18
7.85139e-30
1.54824e-17
2.1829e-13
0.00485023
-5.76559e-29
0.983917
0.398448
7.77323e-11
1.07903e-20
4.14902e-32
2.29167e-19
-3.9449e-37
9.25262e-12
-6.80582e-15
2.52098e-08
4.03615e-08
2.40853e-19
1.15847e-17
6.69519e-20
0.996928
2.47366e-30
1.01461e-20
-7.99454e-12
4.39432e-20
2.41262e-22
0.682625
1.41613e-33
1.52427e-05
7.80419e-15
2.74234e-39
-1.09723e-07
2.02905e-14
3.30339e-06
1.42097e-15
6.72259e-26
1.93499e-09
9.75778e-14
1.63952e-34
-3.80621e-05
7.2796e-30
-5.20362e-19
-1.80357e-33
0.0750792
2.31689e-23
1.30455e-07
2.50294e-15
1.59384
2.83846e-09
0.00523117
6.81414e-09
-4.25983e-29
4.3689e-16
1.86338e-16
-1.3851e-13
5.91787e-13
1.14908
9.37421e-22
3.67316e-32
1.16918e-19
1.26287
-7.06508e-06
5.96893e-30
2.21271e-18
0.345313
2.32087e-12
-3.69575e-15
9.03841e-13
-7.28865e-08
1.61407e-10
-2.91701e-24
0.198664
-4.79307e-37
2.35152e-18
3.36596e-10
0.0115917
1.52417
1.26087
-1.11927e-37
1.2905
-2.44408e-28
-1.9142e-21
0.000624279
1.64911e-12
1.66945e-30
1.18856e-19
7.32109e-08
1.77923e-10
4.45719e-15
0.265526
-9.2573e-23
-2.25699e-06
1.28726e-12
-1.06554e-14
-1.35627e-26
1.21812e-34
1.61738e-28
4.35951e-08
3.33222e-05
0.568298
1.85839e-10
9.70048e-10
-3.96532e-24
-7.59118e-32
5.7416e-07
1.50161e-18
0.10072
4.29176e-33
3.28629e-19
8.38338e-10
1.26294
4.7777e-06
1.37008e-26
-1.89387e-06
0.00234886
6.82376e-12
6.64197e-29
2.10985e-19
1.05836e-16
0.723037
-1.84793e-33
1.51313
2.06563e-13
1.44945e-34
-1.55703e-23
-5.13714e-28
2.25895e-05
3.67911e-21
3.44031e-19
4.09464e-15
2.38261e-08
9.08063e-09
-3.86883e-16
-1.87007e-05
1.345e-13
-2.1328e-10
-0.00084383
4.8126e-22
1.38157
0.741856
1.77618e-10
0.0280356
0.728445
7.98639e-07
0.000223278
-1.97483e-18
2.35741e-15
8.07517e-10
2.16236e-24
1.40642e-19
5.30325e-14
3.47468e-09
1.40847e-27
1.79162e-15
7.69361e-14
-1.02363e-15
-0.0042838
-0.000143999
-2.42166e-33
1.33873e-06
8.87862e-10
4.27721e-30
1.36217
1.9454e-35
0.000139819
4.72647e-22
0.360268
1.83908e-34
-6.94766e-07
1.70945e-11
2.47567e-18
2.10658e-17
1.5545e-31
1.70443e-07
6.07106e-05
1.26632e-13
1.37751
2.70161e-33
3.69062e-24
0.0984252
4.80307e-31
1.31201
4.89984e-05
-3.38819e-29
8.69354e-38
1.90988
0.0981328
1.56679e-07
-2.09106e-12
-1.53219e-28
-2.07963e-34
-4.80941e-26
-5.14163e-38
8.13143e-16
2.33277e-05
-1.09499e-05
2.11491e-19
5.00314e-22
-6.55805e-08
-9.91491e-29
8.73527e-12
1.81968e-32
1.66114e-20
8.32774e-11
-1.80077e-33
5.90378e-05
-1.57083e-09
0.994077
2.42232e-18
-2.56838e-25
-7.38462e-27
-4.52604e-20
4.42659e-32
2.29289e-20
-5.66865e-06
-1.10786e-15
4.20687e-14
2.44063e-17
3.20693e-08
1.54514e-20
1.50699e-16
6.68626e-15
-2.41415e-14
-1.45546e-15
1.6023
-4.03702e-40
8.19053e-13
0.000774284
3.04445e-06
1.61027e-06
-2.07272e-29
0.807713
2.23849e-09
5.86398e-28
4.22263e-05
-5.0785e-32
2.63747e-08
0.948207
2.09451e-32
1.12508e-34
1.44516
5.63395e-10
3.55523e-16
-4.4552e-33
-6.41956e-09
0.325861
9.29761e-18
1.17405e-20
-1.04739e-23
2.34948e-19
2.30256e-11
5.83982e-11
-2.33658e-40
3.45797e-16
3.78841e-18
0.056406
0.780278
-3.2056e-38
-1.89327e-14
1.61187e-14
-2.35533e-30
3.25627e-18
6.4011e-35
1.10978
-6.97086e-39
2.55744e-37
-7.17342e-38
-6.01246e-17
1.24327e-07
0.0143325
-2.27599e-15
1.61277e-38
1.41995e-34
-3.25959e-37
7.74238e-13
8.00176e-28
3.85255e-05
4.58057e-09
1.00009
1.74493e-26
-2.84694e-26
4.29543e-22
1.25388e-10
0.00432406
4.56453e-06
4.81918e-09
0.64439
1.71448e-31
0.166495
-2.03888e-13
-5.60575e-33
7.33987e-25
4.35725e-14
0.464727
1.78862e-11
1.79705e-24
-2.07922e-07
4.18508e-11
3.03913e-12
4.48016e-08
5.67115e-16
3.10674e-29
9.51036e-07
-5.30006e-29
0.530157
1.47563e-29
1.85987e-38
-5.25814e-27
8.19651e-15
0.981675
-2.45764e-29
0.176201
-7.60027e-35
1.8288e-12
-6.61703e-12
3.35309e-11
2.94935e-20
5.13106e-06
1.00916
-6.68733e-25
1.51358e-13
7.07292e-07
-1.39067e-21
3.5381e-13
1.10055e-25
0.518309
1.52374e-06
5.2055e-17
7.67188e-06
5.67948e-12
1.86769e-08
2.23874e-25
5.96462e-09
7.7001e-35
-2.68986e-38
0.448014
1.65428e-08
0.00306132
3.11959e-09
0.0205951
3.24056e-21
1.88534e-08
0.000163229
-1.9096e-30
2.88147e-23
7.34043e-06
-2.67643e-23
2.38969e-28
0.00401764
0.103249
0.914291
1.22791e-10
1.62955
6.86218e-07
2.48166e-17
7.06653e-08
1.45288e-06
1.00996e-10
-1.02521e-09
2.81253e-11
-2.31492e-15
9.36375e-20
-4.62407e-13
1.32018e-07
-0.000161176
0.000750061
1.02259e-28
-1.27394e-27
8.13522e-19
0.000549699
0.242209
2.91363e-13
0.0104619
-1.31717e-23
1.38579e-17
0.620165
-1.15458e-13
0.0457661
0.000765219
5.34068e-10
0.00138115
-2.81922e-29
-1.07425e-13
-1.65211e-24
0.963605
-2.98826e-05
-8.60791e-05
2.23797e-34
0.981544
1.5545e-10
9.50278e-38
-1.23592e-34
3.96888e-22
8.56613e-25
2.42367e-23
-1.81203e-12
1.84304e-06
7.8878e-13
5.47671e-17
-3.70084e-28
6.60302e-10
1.55925e-06
0.53763
1.66805e-11
1.74304e-06
2.8789e-35
4.18586e-29
-0.000143143
1.4851e-07
0.000250541
3.3628e-11
7.21449e-07
4.30152e-27
1.06052
3.59841e-19
9.5336e-19
1.71413e-06
-7.71917e-19
0.00430198
-0.00133624
-4.55332e-28
-1.16275e-26
0.170548
-1.5491e-19
1.89761e-15
0.201003
2.2249e-15
5.70398e-18
-0.000378246
9.73809e-11
1.09961e-07
2.83153e-10
-1.39708e-18
-2.65515e-33
0.0161826
-6.27743e-24
6.46599e-11
0.00471967
4.96187e-18
2.98115e-15
0.414773
-1.40718e-25
0.18963
1.13751e-08
1.10207e-16
1.65662e-24
-2.97789e-19
8.03677e-21
4.6706e-05
-5.78584e-28
0.751633
6.04484e-08
-1.04873e-09
2.87371e-36
0.270884
5.03098e-20
-1.29802e-10
9.83925e-12
1.47236
1.43448e-10
1.11361e-36
5.35695e-21
1.85145e-17
1.45836
-5.77608e-28
1.77564
1.35671e-15
1.13055e-32
3.88693e-11
-1.20517e-36
1.44347e-14
-1.00071e-05
0.00471805
7.43497e-07
0.966191
3.5653e-30
8.4167e-20
6.6416e-14
7.88435e-18
1.18288e-18
1.4484
9.48415e-05
0.179433
5.47865e-31
0.59016
0.000146006
-1.30662e-31
3.7893e-36
0.000214237
-2.77416e-12
2.29375e-39
-0.00825226
1.72777e-20
-0.002683
1.04656e-08
-1.02109e-33
-0.00298927
5.55404e-12
0.184246
-2.61821e-33
8.41597e-07
6.14503e-08
5.05516e-25
-3.91396e-25
6.5738e-14
3.08672e-16
2.80411e-26
1.59192e-05
-4.46478e-31
0.0527075
-0.000289167
1.35428e-19
8.40187e-11
8.68403e-16
6.59975e-09
2.39129e-07
-1.86776e-08
-4.1298e-12
2.31316e-08
-0.00047901
1.61395e-19
-2.65127e-20
5.82756e-20
0.000155661
8.02567e-32
3.26183e-11
1.47712e-29
-1.02862e-10
3.99318e-29
1.37562e-08
3.97725e-05
0.00160602
5.0772e-09
1.76836e-15
1.89248e-06
0.629322
-2.59088e-24
1.00307e-20
-9.6322e-13
1.3678e-20
-2.4117e-13
3.3859e-18
1.81377e-18
-4.08564e-35
-3.48585e-32
3.52186e-21
5.8525e-21
-4.94739e-37
9.09223e-31
1.29522e-11
-8.029e-19
3.01411e-14
2.11481e-32
0.00041948
6.88149e-06
0.00936607
0.150478
0.000136342
0.0562154
1.52472
3.16828e-34
-1.7871e-25
1.99134e-20
3.95981e-15
-0.00531799
9.37106e-11
-1.33776e-26
0.00098449
-3.7085e-30
-5.66787e-26
-1.26586e-35
8.06563e-17
0.785726
1.27113
1.90946e-13
-5.5886e-05
-3.71017e-35
3.15665e-17
0.069213
0.00121135
4.3783e-18
4.77655e-12
0.880737
8.86787e-16
1.6587
1.46991
2.28419e-07
5.50026e-10
1.74368e-13
-1.28534e-05
0.833916
1.11693
4.01164e-10
-3.68645e-09
1.00741e-18
-8.43005e-29
-0.000881217
1.73182e-07
1.88277e-27
1.65449
0.344515
1.40664e-12
0.874793
2.2395e-27
1.93079e-36
0.33805
1.44291e-10
-0.00896722
-3.82488e-09
2.05635e-08
1.45758
9.46826e-19
0.396453
2.63991e-22
6.12391e-11
4.66786e-14
-5.51215e-34
1.64079
3.85904e-17
0.366304
3.56972e-07
1.03051e-05
1.51466e-17
6.04753e-18
1.54482
3.17442e-15
1.99522e-11
5.27375e-12
-2.06798e-36
4.74428e-26
8.80288e-05
1.61846e-23
-4.17447e-14
1.23149
0.000108326
-3.25803e-34
6.47065e-28
-2.20051e-11
-2.7581e-11
7.87812e-20
-3.84048e-13
1.45861
2.04127e-18
5.67839e-12
5.23101e-19
-7.56408e-14
1.41306e-09
0.097785
2.2836e-29
2.11147e-11
0.00630437
0.882468
7.20102e-23
-2.92728e-25
0.000166528
-4.90271e-11
-2.52654e-17
-6.56814e-29
-3.94007e-34
2.11186e-19
-3.35207e-15
1.32425
-5.92794e-30
1.60075e-35
1.07287e-26
-3.99508e-07
3.73063e-13
3.92867e-15
1.86739e-18
-8.81815e-33
1.32053e-26
5.99108e-15
1.88191e-19
1.04024
5.33362e-11
1.49747
2.27215e-18
3.07457e-13
-8.01194e-26
4.49657e-16
-2.48728e-31
-1.28573e-07
-7.84462e-24
2.04628e-05
1.12459e-09
6.53548e-07
-3.3422e-27
-5.21848e-28
0.469007
1.81729e-22
1.67917e-13
-0.00677073
-2.87537e-28
1.49554e-11
-2.21083e-13
1.52514e-19
0.050376
-1.83092e-14
4.38914e-23
0.0267397
1.06561e-23
-2.33398e-23
1.15522e-15
-8.05162e-26
6.73299e-15
-5.15742e-30
-2.53575e-10
2.89522e-25
1.32287
2.70848e-19
1.85667e-18
2.1185e-30
0.000159677
-3.57486e-30
-1.24926e-05
2.50086e-12
-1.42409e-18
-5.6587e-26
-3.91239e-14
-7.65904e-23
2.79805e-06
0.00150865
1.98978e-09
0.194795
-7.89311e-06
1.42094
-2.21242e-25
0.000718882
7.84702e-16
1.40969
1.15593e-14
-6.44023e-28
-3.1874e-28
9.77341e-08
-1.32563e-35
-8.6899e-32
2.67826e-08
-1.58973e-23
3.65866e-10
2.87311e-08
1.59771
0.0159403
1.05635e-31
-1.04671e-20
8.36216e-20
0.157367
1.69115e-29
-1.05094e-27
5.33222e-10
1.67785e-07
1.58956e-15
3.23205e-15
0.111948
1.56248e-30
-5.25395e-33
-4.51261e-20
3.93201e-10
-1.69073e-33
0.188534
2.15537e-05
6.19688e-19
5.10717e-21
0.00637385
1.44084e-05
-4.55112e-12
2.6554e-18
-1.51438e-21
-1.96163e-31
9.15909e-18
8.88606e-16
-8.93595e-26
0.00509724
9.13267e-23
0.000151044
4.61307e-08
6.03143e-21
1.50318e-12
0.0515594
-2.80303e-36
5.65887e-19
7.02589e-05
-6.24768e-24
0.273622
4.22073e-11
-1.05007e-15
-2.42446e-21
3.27623e-14
-3.19991e-37
2.45905e-06
1.52204
-1.87694e-27
2.00114e-13
0.883123
1.1862
0.00932473
0.018865
-0.14305
9.85368e-16
2.04993e-21
-6.92361e-20
5.81173e-05
-6.83148e-33
4.15652e-16
2.44565e-11
3.52708e-17
1.55474e-17
5.37312e-05
0.310093
5.91566e-18
1.82935e-33
9.04854e-11
2.87641e-27
6.65564e-37
-4.45332e-27
2.13872e-19
7.34145e-22
1.06434e-37
-1.28462e-37
4.41093e-23
6.68635e-20
-1.07267e-23
2.34986e-21
0.3376
0.00106573
8.10868e-38
1.69717e-10
0.39675
-4.91576e-40
2.56378e-09
7.16274e-21
1.10803e-09
8.10138e-05
-6.42024e-11
0.00463409
0.0393336
-1.19933e-14
2.3313e-13
2.04941e-22
-6.94503e-06
-3.28562e-22
1.1261e-16
2.07196e-18
2.16475e-27
-0.000109891
1.41307e-17
1.4544e-16
8.2949e-11
-0.00448643
0.829644
1.05379e-07
0.757313
7.20301e-14
4.57705e-10
6.8093e-23
1.00066e-14
-3.39584e-10
5.3388e-39
2.11184e-18
-1.09366e-34
-2.2511e-19
2.23613e-09
4.75393e-13
1.00149
2.89202e-34
-2.59617e-25
-3.31955e-26
-3.70715e-33
2.66705e-23
5.75195e-26
0.511344
5.54692e-08
-3.03129e-15
3.64043e-06
9.09936e-15
-2.99167e-27
-1.82438e-12
8.70587e-20
1.41836e-09
0.00102026
0.58772
9.81482e-18
1.47073e-11
4.57842e-07
1.0167
2.43078e-09
1.53565
2.94018e-12
-1.15916e-10
1.44456
0.0202855
-6.79982e-34
5.16109e-10
0.187516
2.72959e-31
4.15345e-20
0.000102648
5.28152e-12
7.54992e-20
-1.21906e-29
9.23179e-12
1.68211e-30
9.60388e-29
-3.77471e-35
-1.53133e-05
1.94274e-11
3.83445e-27
0.000144548
2.93664e-13
0.433068
-1.74376e-06
7.1048e-11
0.0562695
1.74409e-07
1.48184e-15
0.00235381
7.29875e-32
8.80915e-18
2.57551e-17
-1.2513e-15
2.57823e-08
-4.02178e-35
4.99088e-06
-1.28537e-24
-1.26237e-11
0.999004
8.5852e-19
1.12928e-17
-3.02299e-28
1.66175e-34
7.39494e-08
1.33081e-08
-3.66322e-32
7.31534e-18
3.12349e-19
0.00230758
1.15865
-3.51416e-37
-7.64488e-06
1.57805
1.03709e-20
1.82356e-17
1.75709e-06
4.67593e-19
-4.05469e-16
-1.49077e-30
6.83542e-38
-4.66932e-31
6.86395e-33
3.25681e-30
2.84259e-09
-1.45488e-26
1.31995e-25
1.29087
6.91132e-35
-5.91184e-34
0.016025
2.2461e-13
1.38049e-37
-4.14019e-05
0.0364099
-1.10458e-34
-6.01799e-31
7.25175e-12
5.36173e-13
1.47949
-2.95741e-17
-4.82465e-30
2.66782e-11
-0.0147205
-0.00105984
4.65975e-19
0.0147273
3.26404e-25
-7.16614e-32
-1.29626e-31
2.64812e-35
-3.14823e-24
4.96832e-19
6.65994e-13
6.40799e-34
4.61965e-20
0.147405
3.24793e-34
6.52237e-06
-4.24287e-26
1.32461e-31
2.04212e-17
-2.84374e-31
5.36493e-16
4.42599e-22
0.00220048
1.49231e-30
1.83294e-25
1.79538e-29
-7.96434e-35
4.54235e-39
-6.50291e-27
0.0122141
8.48369e-32
3.07056e-21
2.65857e-19
4.92337e-32
-5.16695e-24
0.00245921
1.38706e-35
-9.708e-27
1.66457
0.344733
-1.59873e-10
2.11235e-12
1.79807e-21
9.62413e-14
2.68814e-20
3.36038e-35
3.28846e-08
-0.000471367
3.48663e-16
-1.44975e-28
1.83965e-10
2.27448e-08
0.0078574
0.629173
-6.31783e-05
5.13855e-33
4.20698e-10
7.3697e-31
3.97122e-15
-0.000378347
-1.53949e-19
0.00418732
-1.63071e-32
4.10564e-24
1.61014e-22
-1.36811e-38
2.37726e-07
4.57676e-36
1.28874
-1.51356e-12
0.643402
1.7875e-12
-1.45939e-33
1.91634
0.018427
0.0246546
3.39279e-35
0.0410736
5.04286e-06
0.101073
5.98958e-13
3.96646e-13
0.0320268
1.15765
3.14032e-08
1.24453
4.91539e-06
2.32508e-34
4.1751e-17
0.966673
0.0251119
4.86856e-16
2.10661e-07
-9.64966e-27
2.59266e-26
1.48352e-36
1.94675e-05
-2.89308e-37
2.70877e-13