/*--------------------------------*- C++ -*----------------------------------*\
| =========                 |                                                 |
| \\      /  F ield         | OpenFOAM: The Open Source CFD Toolbox           |
|  \\    /   O peration     | Version:  4.1                                   |
|   \\  /    A nd           | Web:      www.OpenFOAM.org                      |
|    \\/     M anipulation  |                                                 |
\*---------------------------------------------------------------------------*/
FoamFile
{
    version     2.0;
    format      ascii;
    class       volScalarField;
    location    "14";
    object      T;
}
// * * * * * * * * * * * * * * * * * * * * * * * * * * * * * * * * * * * * * //

dimensions      [0 0 0 1 0 0 0];

internalField   nonuniform List<scalar> 
26625
(
0.0263541
0.336303
1.40206
1.6409
0.00628473
0.0863662
-0.00412605
0.057013
0.438204
1.63998
-3.66426e-07
0.827678
0.0119264
1.5663
1.38704
0.0127169
1.8045
1.48697
1.59814
1.07739
0.0321628
0.744554
1.07573e-05
0.978172
0.0378472
1.35494
0.759492
0.960821
0.0815979
1.13027
1.54069
0.996554
0.0500416
0.971111
-0.000481122
-2.91559e-06
0.318446
1.43215
0.313478
1.20597
0.619065
1.46438
1.60284
1.52498
0.121389
1.65816
0.488667
1.58432
0.304968
-2.58926e-07
1.62898
0.996991
0.929948
0.0317137
0.992315
0.305898
0.679684
1.55779
0.379744
1.48649
-4.07099e-11
0.0095179
0.000229322
0.217184
1.44119
-6.2843e-10
1.14456
1.5373
0.265644
0.348745
1.43006
-1.41291e-05
0.502532
0.00432653
-1.79648e-06
1.58719
0.000483117
1.60432e-08
0.951114
1.63907
0.947409
0.518802
0.785997
1.3729
1.53723
1.56111
0.000206417
3.35818e-07
0.584372
0.913829
1.97325
1.48116
0.427571
1.50893
1.07222
0.790652
1.03571
1.22284
1.37707
0.9686
0.650607
1.53804
1.50955
1.40233
0.0870464
1.03834
-1.68802e-08
1.38035
0.973653
0.0183488
1.64363
0.202063
0.932947
1.38412
1.37099
1.51331
0.000141006
5.94638e-05
0.368229
1.46887
1.4006
1.15788
2.2412e-05
0.625733
0.359532
1.48198
0.907315
1.7453e-09
1.12534
1.15165
1.42325
1.28453
1.45045
0.0228357
-0.0621511
1.35685
1.33986
-6.76755e-10
0.782272
0.267921
1.21091
1.73246
0.226449
1.01838
1.59663
1.46458
1.11011
1.57014
0.426445
1.40273e-09
1.48707
1.01722
1.30036
0.869419
7.92429e-11
1.11674
0.955377
1.47765
0.983526
1.52526
1.57957
1.03985
1.18985
1.21087
3.0409e-05
0.0178798
1.56413
0.89624
0.616734
-1.79846e-05
0.987155
4.72885e-05
0.852405
1.10538
-2.33598e-11
1.78506
0.854409
0.857628
1.32195
3.61136e-07
0.812878
0.372094
2.86737e-07
1.57523
0.934227
0.857843
1.0908
0.95011
1.62122
0.87137
1.01029
1.01516
1.38022
1.45465
1.45681
0.0118749
0.921887
0.230586
1.51229
-1.99949e-05
0.252456
1.46756
-1.94775e-05
1.66503
6.53364e-06
1.11081
1.79994
1.49181
0.135337
0.926666
6.28627e-07
0.797537
0.003592
1.02522
0.00976579
0.998794
-0.0829753
0.396761
1.26079
1.11558
1.46759
6.40771e-07
-7.98299e-08
0.413179
1.62356
1.46701
2.89796e-05
0.992484
1.10186
0.992408
1.39601
1.55377
1.42713
0.468756
-5.15273e-06
0.8145
1.59422
1.26171
-2.23297e-07
0.569824
1.56081
1.33024
1.45233
9.21436e-05
1.06561
1.02282
1.12192
-6.84336e-05
3.42308e-05
1.46692
1.5707
1.36251
-0.000874096
0.947743
1.00411
0.342897
8.6015e-10
-0.00157089
1.02697
0.675627
0.0106883
1.71606
0.763622
0.949687
1.36695
1.55997
6.19243e-05
0.000454775
0.84195
1.5073
1.82066
1.51688
1.26806
1.19961
0.338177
1.20686e-09
1.07859
1.4014
1.19661
0.29583
0.649924
-1.62691e-06
1.6794
1.02349
0.995338
0.000212156
1.48887
0.00322768
1.55592
0.378528
5.81154e-08
0.215681
1.30428
1.553
1.19535
1.29253e-07
-6.23602e-10
1.16022
-8.74408e-06
1.42711
0.866545
-0.00130624
1.46081
0.0163465
0.376499
-1.05789e-09
-6.08586e-06
0.101816
-8.69388e-09
0.638638
0.473576
-1.19107e-11
1.93178e-09
1.42015
1.21116
0.792588
1.26405
0.806055
1.73452
1.4821
-1.92421e-10
1.3841
0.683646
0.418369
1.27479e-07
0.990548
0.93203
1.53638
0.381744
1.3516
0.62302
0.0279019
0.88939
1.21318
1.63113
0.318842
1.10136
0.749174
7.49995e-10
0.82895
1.6419
0.727809
0.969499
1.36392
0.943426
1.28903
1.03485
1.51912
0.115866
-0.182546
1.52246
0.920896
1.65316
1.69455
1.02576
1.05406
1.0972
1.57947
1.20443
1.63264
1.02724
2.19289e-05
0.147195
0.865314
1.47967
0.950779
1.62055
1.64787
1.04006
0.650875
1.57828
1.40825
1.27854
3.99704e-08
0.0236325
0.96172
0.96227
1.85853e-08
9.77427e-08
1.58028
1.01942
1.03142
0.993016
0.190306
0.661475
0.112859
1.00142
0.315098
0.579602
1.77719
-9.0682e-09
0.0199108
0.603536
1.83379
0.167793
1.63505
1.61901
1.11813
0.989434
1.51416
1.21492
1.02461
1.60407
0.000118585
0.00126671
1.41626
1.27285
0.248131
0.319984
0.842963
1.62969
1.67934
0.00154138
-2.14538e-06
0.512779
1.5877
0.451845
1.32902
1.47202
-0.000468257
3.55388e-06
0.000197917
1.72396
1.07325
0.707584
0.00810937
1.11402
0.116945
-9.78145e-09
0.813817
1.62031
1.63733
0.148954
0.000300477
1.44862
1.25504
-2.92274e-07
1.3638
0.970585
1.75647
1.11621
3.71524e-07
0.530092
0.977647
1.65898
0.780033
7.27309e-09
1.42619
1.29309
1.6489
-0.150438
0.823753
-1.18095e-06
1.13238
0.221262
0.573534
0.854184
6.93085e-08
0.124954
1.33872
1.56247
1.55018
0.08802
1.56368
0.0130565
0.994792
3.53457e-09
1.01904
1.76555
2.11678e-07
8.9254e-06
1.98437
1.02792
1.34548
0.079192
-0.000575175
0.91473
0.99229
0.938817
1.313e-06
1.52115
0.00249687
1.40883
5.2524e-05
0.938831
0.816074
1.3677
0.857975
1.58375
0.0117962
1.31548
0.97419
0.0108657
1.56575
3.88989e-06
1.55628
1.48913
1.57528
1.38667
0.092699
1.54603
1.20332
1.35511
1.54312
1.00673
-2.11563e-06
0.839557
0.959369
1.18465
-0.00148376
1.66345
1.12827
1.37716
1.35909
0.00179428
0.000535823
0.909919
0.491457
0.0379974
0.961798
1.00507
1.73277
-4.78541e-10
1.01037
0.843362
9.90807e-05
0.92699
1.38748
0.994989
0.0180008
-0.00181017
1.41276
1.76923
0.841678
1.14997
0.995425
1.44467
1.28009
1.55213
0.0490281
0.631204
1.20823
-1.13419e-06
1.5355
0.414601
1.03234
1.11364
0.359959
0.000440603
0.000263988
1.0505
0.0197894
1.41006
0.921686
0.201933
-0.125702
1.01758
0.899032
1.68282
1.10271
0.716996
0.645655
1.19744
1.41172
0.778976
1.1405
6.95885e-07
1.09539
1.4713
0.000284112
0.1169
0.0464405
1.73552
2.31493
0.868366
1.45056
2.06165e-09
0.918987
6.29637e-05
1.10108
2.36595e-05
1.00814
0.682227
1.7669
0.746047
0.318392
0.807812
0.216602
0.888534
1.44518
0.196377
1.36951
1.05305
3.13767e-07
0.654255
1.3428
0.972845
1.05406
0.997001
0.130364
0.000276603
0.785568
0.95461
1.76964
4.04175e-06
0.442619
1.61446
1.26287
1.0796
0.486275
1.14165
1.2096
0.0937932
1.08366
1.3991
0.321416
1.25882
1.30081
-0.000139775
1.20368
1.21751
7.53243e-05
0.719912
1.07531
0.0165698
1.49625
0.214909
1.83088
0.771263
-0.151501
-2.1275e-05
0.673785
0.563076
0.17075
1.08389
-1.33548e-05
1.07559
0.401292
1.1087
1.54038
8.6931e-05
0.00801764
0.971094
0.0149153
0.247591
1.57446
0.521559
0.373436
0.00772196
6.53206e-05
0.952026
0.0738158
2.80403e-05
1.2881
1.55892
1.91419
0.603852
0.849856
1.409
1.24129
0.000659336
1.21132
1.39153
0.00357374
1.03875
-0.191098
1.30948
1.8351
1.74408
1.49336e-07
0.638067
1.08307
-1.04879e-05
1.31642
2.24002e-08
5.66246e-06
1.04059
1.55662
0.732786
-0.000101314
1.44204
0.000577331
0.76832
4.85246e-05
0.472164
-6.01317e-08
1.56013
1.04993
0.962453
0.885443
-3.12547e-06
-7.34468e-10
0.0507182
0.342422
-2.13663e-05
0.0419445
0.967994
1.18266
1.07438
0.603724
0.783134
1.36831
0.0915861
1.16075
1.19526e-07
1.32207
-0.000171071
1.00356
0.870226
0.975575
-7.16137e-09
1.64928
0.00098267
1.86346e-09
-7.20585e-09
8.14466e-05
1.08713e-09
1.18649
1.82093
1.39074
0.226432
1.47354
0.382497
-2.86412e-10
1.54023
1.20485
-1.11029e-07
1.68077
0.651452
1.49392
0.0345818
-0.0155796
0.48647
1.50122
0.000935931
1.47941
1.53626
0.600105
1.52385
1.99094e-06
1.00763
0.770217
1.21187
0.875429
0.126502
2.2314e-07
1.14728
1.59479
1.42182
0.952434
1.26862
1.07289
1.50975
0.00204332
0.363233
0.440043
0.139801
0.727579
1.4426
1.62594
0.00335306
1.02943
1.43131
0.853043
0.321085
0.979297
-2.698e-08
7.92874e-06
1.05441
-3.8403e-05
0.0165621
0.0178985
1.8175
1.81054
3.24433e-08
1.50869
0.370757
0.905612
0.0207285
1.94174
1.02407
0.0070997
0.939942
1.46771
1.16439
0.432524
1.00992
0.890135
-0.000138181
1.11359
1.6913
0.260652
1.14473
1.03019
1.41495
1.47837
1.3791
1.38253
0.266442
0.787204
1.44279
1.00053
1.46098
0.0269649
1.04532
1.58236
0.123822
1.3785
4.47959e-09
0.710579
1.46242e-06
-0.000133247
1.7263
1.01062
0.0031668
0.994806
0.000202661
0.519091
1.13393
0.716515
0.23939
-5.5601e-12
-3.05301e-06
1.4281
1.8367
-2.71545e-06
1.05944
1.04203
0.000188833
0.925221
-0.108917
0.435326
1.70326
1.54941
1.13012
0.00102448
1.04709
1.77026
1.25313
-9.51428e-05
1.43772
0.000501982
0.78302
1.12535
0.91247
0.00416593
0.00110397
1.42818
0.393313
-1.23226e-06
1.48994
1.18512
1.65822
0.00427548
-9.28229e-11
1.86535
1.366
0.371175
0.591488
0.437573
1.4321
-0.0225687
4.86203e-05
0.127885
0.367259
0.569005
0.835868
1.6164
-3.35855e-06
1.46537
-1.03438e-07
0.952927
0.0200687
0.00650211
1.5344
0.156759
1.59156
6.25578e-10
0.994672
1.10791
0.389841
0.0431559
0.353364
1.49246
0.674335
1.17351
0.6035
1.39384
-1.32078e-08
0.556982
0.00063526
1.49388
-1.33308e-06
0.896332
2.60309e-07
0.0311749
0.974699
1.78013
1.42335
0.56558
1.50142
-1.81531e-07
-2.08386e-05
1.5479
1.57005
0.255927
0.0356055
-0.0485674
1.19146e-07
1.56734
0.141235
0.577038
-1.36337e-05
-4.33036e-10
1.02539
1.00045
-7.62017e-07
0.378439
0.0331378
1.39809
1.03942
0.763188
-5.77806e-10
0.896551
-2.70817e-10
1.10674
0.730891
1.8609
0.909622
0.477497
0.990472
-1.49154e-06
1.09879
1.52924
1.44983
0.353132
0.000109523
0.0603629
1.58809e-10
0.888858
1.53519
1.08125
0.968931
0.245764
-8.18601e-06
0.901266
1.36645
0.19135
1.02148
5.67397e-09
1.31505
-3.05403e-07
1.11339
1.37812
0.57941
0.00271671
-0.00030914
0.00145717
1.36945
1.00745
0.846971
1.12934
-0.00125644
1.24468
1.00103
0.978979
0.719907
-5.65126e-05
2.94774e-09
0.993069
0.19836
1.37625
0.0752897
0.320901
1.28882
0.0167765
0.22344
0.973557
-4.9792e-08
0.979985
0.954327
1.01746
1.06584
0.0709472
0.000273931
1.37348
-4.93781e-08
3.87167e-06
0.290177
2.02633e-09
1.1
1.80903
0.00530109
1.23076
0.0272347
0.980354
0.444647
-0.0127124
0.0799151
-6.02898e-06
0.411251
1.17308
0.0205776
0.0611416
0.984608
1.04391
1.63342
1.07356
1.03332
0.298356
-5.21583e-05
0.364526
1.61147
1.46855
-1.45021e-07
0.79084
1.09334
7.4376e-09
0.966122
0.00169254
0.00129275
1.70826
1.0424
1.78552
0.996412
0.00903288
1.30474
0.988654
1.48936
1.62217
0.539731
0.736203
1.50261
1.00109
3.00268e-06
0.883056
0.946445
0.0099965
0.747768
1.19063
0.0392075
0.999069
1.00624
0.225439
2.57189e-07
0.74532
0.792164
1.46586
0.81216
0.660623
1.01865
0.142015
-0.00107654
1.64374
2.06524e-08
0.0171928
1.32692e-05
1.46412
1.48634
1.47484
1.46612
4.19343e-05
1.59333
1.70834e-05
-2.76315e-07
1.26682
0.612888
0.815964
0.760553
1.5192
1.49127
0.909183
0.984554
1.69463
0.14083
1.64684
0.000155653
0.867829
1.44896
1.29441
0.238901
1.60388e-07
1.31105
-1.34374e-06
1.50827
1.06587e-09
0.975682
0.912553
0.132233
7.80572e-07
0.922781
1.49429
0.880192
0.14133
0.983804
-2.86064e-05
1.03646
1.38436
1.09239
1.49065
1.29866
1.06325
9.43794e-07
0.404666
1.42516
1.83999e-07
1.60798
1.48503
0.911007
6.75773e-07
1.68612
1.50452
1.07264
1.3906
1.08847
1.77027
1.51355
0.00104292
3.18432e-05
1.41833
1.01708
1.12678
1.32217
0.00693096
4.68755e-06
7.21593e-07
0.0147799
1.52218
1.28962
0.160411
0.027625
4.38612e-08
1.0817
0.077131
-3.38525e-06
1.45507
0.715073
0.146648
1.23757
0.728379
1.13023
2.03185
1.51499
0.994992
0.961931
0.000117618
1.19479
1.77979
4.1655e-09
1.51283
1.11388
1.49391
1.02101
0.129066
1.44214e-09
0.0167605
1.7075
1.04931
-0.00921354
1.36119
1.82183
1.67764
0.945049
1.39433
0.426394
-2.82458e-08
1.05186
1.53466
0.845088
1.71521
1.21322
0.0017034
1.64333
0.375542
0.297376
0.644497
1.00477
0.00137509
1.2595
0.00045237
1.67304
-0.00237484
0.0143449
0.791914
1.2748
1.55215
1.48194
0.833383
1.94792
0.445496
-3.11514e-10
0.419024
1.49766
0.805997
0.96165
0.825732
0.000380449
1.95482e-09
0.000347623
1.29066
0.940272
0.481893
0.00139962
1.12258
0.552049
1.38666
0.0284094
0.970503
1.03202
0.27908
1.5902
1.95634
0.000110674
-2.72401e-10
0.161482
0.514464
0.952788
0.95761
1.02745
1.64225
1.60903
0.860887
1.62235
1.48713
1.61257
0.0025252
0.0776753
1.41145
-0.0124615
-2.19163e-05
1.49354
0.940189
0.652326
1.73144
0.734688
1.52526
0.077663
1.74723
1.58861
1.63402
1.4711
1.19717e-07
0.00466953
1.61539
3.04028e-09
-0.0862386
0.2521
1.31731
1.35981
0.158042
1.01099
0.31945
0.0521844
-1.91941e-10
1.05376
0.503753
1.66723
1.48066
1.46522
0.554341
1.79388
0.618199
0.0120229
-0.000926214
1.27049e-11
0.657852
1.20973
0.845287
0.225977
3.81989e-10
0.994319
-4.27003e-12
1.18015
-1.49187e-08
0.392303
0.84924
1.53582
-9.39964e-06
-6.81574e-08
0.925425
0.929742
1.01605
1.69735
1.428
1.50023
-5.33893e-06
0.0261442
0.927945
1.09374
1.63787
0.0689035
0.951545
1.02362
0.740527
1.35835
-2.04854e-06
1.05256
1.49595
1.6969
0.962997
1.09114
1.56926
0.0405511
1.06658
0.925755
1.51671
-5.83065e-05
1.64746
-2.92079e-05
0.742604
1.00677
0.0438296
1.04166
0.409589
0.603549
1.78667
0.997707
0.0506197
0.451114
0.332852
0.273964
-9.07188e-08
0.995174
1.55623
7.06761e-05
-8.30189e-08
1.6834e-06
1.33066
0.978427
1.23976
1.50886
1.12131
1.56133
0.0820647
-1.08921e-09
1.55984
1.56859
0.993672
0.276504
1.22992
1.63973
0.592411
0.822388
1.38961
0.0173654
0.931378
1.36105
1.01123
0.73944
1.68459
0.12854
-0.179139
6.31994e-09
1.05859
1.54283
1.24045
0.0354729
0.943601
1.21719
0.88951
0.573288
9.74445e-07
1.22106
1.52587
0.000195186
0.663981
-3.38312e-09
0.000263226
0.156526
1.38997
1.78114
1.54431
1.58936
-3.89345e-09
0.867955
0.968394
0.000263199
0.952593
0.253459
0.471908
1.45293
1.48771
0.774243
0.277691
1.5575
1.45244
0.00265716
0.763077
6.35859e-05
1.18978
1.00812
0.262327
0.539434
0.592736
1.0811
1.41228
1.44428
1.06911
1.39907
1.56573
1.01526
1.67501
0.000571134
1.49317
0.604744
0.000545774
0.66301
1.65825
0.946616
1.70239
0.842186
1.47676
0.971223
0.61779
-9.66022e-05
0.865791
1.42013
9.85101e-05
5.85133e-08
1.93566
1.179
0.256869
0.225909
1.0011
1.10193
0.45468
0.487666
1.38052
0.808395
0.126088
0.990806
1.64535
1.60708
0.785019
1.50095
1.21956
0.74495
0.149693
0.797361
-2.91109e-07
1.44692
0.396389
-8.01543e-06
1.78593
1.38482
1.29837
0.00231432
0.981823
1.42868
1.57279
0.521464
4.90424e-05
0.525913
5.67975e-07
0.423029
0.0142491
1.46017
1.21672
0.431287
1.0569
0.609512
1.63641
1.90159e-06
0.168588
0.163574
0.253848
0.349784
0.956993
-8.00145e-07
1.61356
1.2188
-9.3938e-11
0.208988
1.38097
1.66427
0.895343
-0.00105124
1.11632
0.878433
-4.01484e-08
0.94776
9.43348e-06
0.37557
-8.46511e-08
1.35457
-0.000740092
1.02453
0.884096
1.60078
0.745283
1.20278
1.33656
-1.46266e-05
-0.00560661
0.398885
0.0358292
1.03204
1.10391
0.416961
9.81132e-08
1.25415
1.30387
0.932082
1.06624e-05
1.04056
0.968116
0.893646
0.851056
1.234
0.175834
0.695438
0.0104096
1.95448
-1.94128e-08
1.18833
1.05368
1.63669
1.52858
1.35499
4.85744e-07
1.45182
-5.07045e-05
0.0542526
1.51942
0.921069
4.87483e-06
0.789735
1.12947
0.208852
0.702099
1.44746
0.219633
0.362601
1.5246
0.980288
0.00810159
8.60275e-08
8.93796e-05
0.846236
1.18388
1.01273
0.844995
1.34076
0.0119693
6.95658e-05
0.31704
0.20867
1.4174
-3.29691e-06
1.69706
0.774917
1.27766
0.548464
1.52911e-05
2.44587
1.22001
1.38528
7.37771e-07
0.228513
1.38697
1.62937
-2.20594e-08
1.51893
1.77199
3.3994e-07
0.02804
0.000201279
0.764037
0.707678
1.0424
1.69666
1.52265
1.25934
0.662811
0.865194
0.770133
0.924663
0.769595
0.0683495
1.41027
1.3731
0.934879
1.02331
1.47317
1.2221
0.586446
0.694688
0.0148753
1.65578
0.000485162
0.382447
1.32352
1.14274
0.00339499
0.893786
0.904673
0.019411
1.03782
1.05092
-7.91193e-07
1.30622
1.34629
-5.38987e-05
1.33717
-8.95793e-08
1.27709
0.21295
1.65716
2.16369e-09
0.662459
1.42101
0.619142
0.771342
8.88983e-05
0.329143
1.62371
0.715915
1.52847
5.05991e-07
0.010679
1.39092
-4.445e-06
1.48768
1.04403
-0.000436256
1.9924e-09
1.91709
1.48205
1.03062
1.13327
-2.56684e-05
7.67425e-06
-0.000590949
-6.27234e-10
0.0701859
1.09102
1.07058
0.312892
0.196003
1.43302
-2.3279e-05
0.364635
-8.60802e-07
0.0899649
1.68145
3.86394e-05
1.45366
1.12592
0.966708
1.09509
0.00517171
0.000124212
0.456811
2.32081e-06
0.459666
1.14174
0.794082
1.00171
1.28708
1.71175
0.67763
0.272588
1.87338
0.971726
0.373652
1.52778
5.02113e-10
0.137121
0.965321
1.47513
0.776811
3.48486e-05
1.02454
0.594385
0.000311627
1.02847
0.000223469
0.481324
1.00282
-5.42126e-06
1.32835e-07
1.44643
0.268233
1.03701
6.56476e-05
1.08931
1.12485
2.14835
0.0276615
-0.000458472
1.10992
1.23392
0.242505
-3.52811e-11
0.777601
1.46968
0.986148
1.00512
-1.0095e-09
0.732434
1.52056
-9.42314e-05
0.946787
1.81405e-07
1.28359
-1.05726e-10
5.4556e-08
6.07604e-10
-0.0828017
1.38844
1.37731
0.838509
6.81499e-09
-5.63151e-07
-7.12315e-10
0.171459
3.82326e-05
1.33233
1.77643
0.992375
0.00521899
0.00726932
0.416985
0.967261
1.52208
0.885295
1.44269
1.14894
-2.26556e-06
0.988052
1.03945
1.16448e-06
0.00162516
0.105581
2.37358
1.77681
0.00558391
0.670315
1.46415
2.14113
1.57299
1.37017
5.93885e-06
0.731976
-0.000103596
1.4067
3.07211e-05
3.29465e-10
0.00181387
0.0857062
0.992922
2.09739e-05
1.05061
3.72629e-07
1.47396
0.599251
1.23732
0.0213595
0.947493
1.07305
0.000727368
1.54008
1.01752
0.0817809
0.663849
5.57178e-05
1.39941
1.43045
1.2647
0.480466
0.523303
1.61157
0.00857164
1.02451
1.10862e-07
-2.99712e-09
0.992028
0.959922
3.25582
0.795283
1.20444
0.565772
0.963036
0.874375
0.000971842
0.0143911
0.379604
0.0395425
1.53013e-06
1.66237
1.06555
1.54012
1.69523
1.60802
0.937969
1.58027
0.290921
1.67592
0.831864
0.186998
1.1472
0.28346
0.686133
1.06673
1.10989
0.416853
1.14203
0.00110731
0.0015089
1.20198
1.13075
1.16373
2.41002
1.01982
-0.00114108
1.28951
1.01431
0.136889
1.4358
1.55585
1.70194
1.35878
-1.27328e-05
0.633703
0.0105118
0.97856
1.05835
0.994802
2.2741e-09
0.990708
1.60385
3.18258e-07
2.78291e-08
0.259861
0.00759479
0.0229956
0.465836
0.114627
1.68042
1.41688
-0.000219882
1.53165
1.65709
1.37601
1.22268
1.35847
-3.55065e-09
0.00233263
1.0044
0.161713
1.89432
1.79253
0.830287
-0.000432881
1.14205
1.28754
0.712271
1.06639
0.0539065
0.522844
1.03
5.73503e-05
-6.66356e-05
1.03803
0.103426
1.36673
1.48502
1.32667
0.418759
0.892925
0.778139
1.31049
1.63236
0.202556
2.42199e-07
1.02622
0.0196517
0.835685
0.963981
0.598992
1.38817
1.50574
0.042468
1.31564
0.351671
1.41293
0.000443601
0.583213
0.607804
1.09683
0.0003934
2.37611
1.51402
1.03742
-2.34829e-09
0.995065
0.341029
1.04665
0.6635
1.72224
1.62393
2.52053e-09
0.703275
0.845454
1.52537
-5.28552e-05
1.7195
1.72203
-4.01522e-07
1.26119
-1.17442e-08
0.11061
1.09168
0.707939
1.13491
1.04969
6.88108e-06
0.625041
1.0577
0.246948
0.109246
1.51569
1.31939
0.754574
1.1528e-05
1.46966
1.82584
-6.85584e-07
3.2992e-08
2.06238
0.174294
-7.54158e-11
0.571997
0.474125
1.00826
0.309096
1.10375e-06
1.00411
1.07839
1.65295
1.34867e-06
1.75816
1.64468
0.00581358
0.010942
1.82397
0.500953
0.00734246
1.79142
3.68728e-06
1.42755
0.672581
0.259109
1.37555
1.46197
1.34057
0.796015
0.462986
0.353367
1.15039
0.978014
0.522064
0.447464
0.202104
1.98119
4.66261e-05
1.49604
-0.000343751
0.760125
4.58551e-06
1.78675
0.888899
1.63014
1.3402
0.597684
1.02409
0.886429
0.0351221
0.081102
1.02627
0.119664
0.921182
0.474281
1.15779
-1.65885e-08
-2.74333e-07
0.982118
0.362027
1.47274e-10
9.57452e-07
0.511527
-0.133981
1.22336
2.64593e-06
1.6725
1.339
1.48777
0.779924
1.50828
1.47822
1.47953
-1.39728e-07
0.00916513
0.568048
1.65796
0.510682
0.702306
0.000832438
0.986735
-5.05908e-06
0.0323921
-4.37634e-09
0.338837
1.03947
2.06527
1.55202
0.611844
-9.50221e-09
1.05929
1.20051
1.54409
1.35408
1.51807
0.987767
0.83929
1.80382
1.47434
1.07067
1.18679
1.13447
1.01194
0.868571
1.6644
1.58864
0.925071
0.425005
-0.00014599
1.10192
1.02973
-0.00141077
1.62153
1.59173
1.15704
1.02074
0.000639848
3.91114e-07
1.37508
1.06882
0.868122
0.973646
1.54525
1.50952
1.12788
0.961075
0.047742
0.857111
1.13776
5.54716e-08
1.6285
0.748286
1.32841
1.59698
0.445792
0.439231
0.287273
1.55129
1.49701
0.763175
0.961359
4.18779e-11
-8.4499e-05
1.26123
0.0278608
0.917587
1.20849
1.26546
1.89999e-07
0.000668143
0.0495991
1.231
0.359969
0.0296255
1.47043
0.14693
0.530357
0.180963
1.04881
0.884405
0.670775
0.000320663
1.26048
1.406
1.39041
0.237319
0.00483279
0.624426
0.816559
0.385608
-0.000458812
-2.23888e-08
1.03344
0.969399
1.4015
0.000732095
-7.41291e-08
0.0132156
0.388819
1.18851
1.07749
0.23372
2.93036e-05
0.000394834
0.676456
1.21707
1.63583
0.359189
1.50388
0.758032
0.429871
0.0281394
0.642573
-1.09378e-05
0.32327
0.0259238
0.5601
1.61215
1.0082
0.00947106
7.68478e-06
0.969662
-0.0041571
1.1474
1.01366
-0.000154078
1.01272
1.10085
0.375653
1.43992
0.909758
0.0137616
0.810693
0.00841696
0.0225703
1.64299
0.000593867
1.80981
0.00030835
1.15915
0.00401978
1.49218
0.843946
1.21397
-3.17102e-05
0.699009
0.00376639
1.02635
1.53743
0.336422
0.0154074
1.0118
0.00349027
1.43475
1.13069
1.62815
0.815781
0.99506
1.54056
0.00032162
1.69287
0.562591
2.03216
1.34362
0.003729
-0.000536021
1.71075
8.31564e-08
5.61615e-07
0.70332
0.0202176
0.167104
1.40538
1.55335
1.70036
2.16294e-08
-0.000572381
0.729616
0.986452
2.78282e-05
-7.19875e-06
1.57198
1.25841
0.800602
0.261883
1.14194
9.01705e-08
-2.14812e-08
0.157323
1.45426
3.44499e-09
0.943639
1.58649
0.697852
0.652119
1.53066
1.69172
1.08321
1.02841
0.00409413
0.000357637
1.0147
0.0526858
0.00064588
1.25699
0.00463949
1.25768
1.62797
0.440986
1.18397
1.64432
1.87212e-09
0.118396
1.30792
6.65145e-05
1.40691
0.566745
0.106564
0.0888021
0.814601
2.45968e-08
1.66925
1.52195
0.00779947
0.732405
1.56548
1.5672
1.00373
0.727154
0.561894
0.228281
0.604573
0.236533
1.46475
-8.39231e-09
0.263136
1.02277
0.512779
0.842071
2.1116
1.29371
0.90001
9.04918e-07
0.927519
0.000220288
-8.59351e-08
-0.000194807
1.15022
0.49103
5.89637e-08
-1.06183e-10
0.0301071
1.28687
0.0222372
0.0785465
1.49246
1.08638
-6.24302e-10
0.843151
1.76376
-6.73313e-11
0.114247
0.507482
0.548751
1.23592
0.870622
1.5206
3.07742
0.62721
1.36431
0.304342
0.99046
0.199413
1.62095
0.263362
0.00456491
0.925069
0.303818
0.333612
1.53503
0.531949
1.05635
0.97444
1.04139
1.32287
1.20771
0.336214
0.954154
0.983648
2.43421e-07
0.853573
-1.79969e-07
0.259846
1.49657
0.118673
0.966692
1.29816e-06
0.0393102
0.0155838
2.1738e-05
0.0106596
0.00145559
1.7024
0.626174
-0.0803373
0.947563
1.07544
-0.00042958
0.564124
1.1817
1.43774
1.42412
1.62929
1.42293
1.24873
0.85213
1.04057
1.61048
1.51839
1.89796
0.269985
1.408
1.31274
-6.96855e-08
1.47309
0.974703
2.82614e-06
0.262282
1.01799
0.628711
0.420639
0.000591375
1.15464
4.16895e-07
0.000135087
-4.59265e-08
0.763233
0.973333
0.000323402
0.949596
0.149429
1.58907
1.88798
0.739124
1.55449
1.42403
1.92377
1.24922
-1.503e-07
0.684868
0.552914
0.576062
1.10444
3.56408e-09
0.412884
0.00158821
0.749844
1.02943
1.07031
1.17226
-0.000363954
-4.30279e-09
0.68598
0.609071
-4.61028e-06
0.0847332
1.63009
1.403
1.50664
-5.97242e-11
0.952963
1.54512
0.0364489
0.223991
1.32529
0.985582
0.357339
8.68946e-06
2.06514e-09
0.000131694
-7.50754e-07
-2.06081e-05
0.946132
0.021801
0.00140321
1.45318
4.72743e-08
-2.44704e-06
1.02989
0.916641
3.02016e-09
0.937619
0.976614
-6.47643e-08
5.43515e-05
0.338712
1.69054
1.88425
0.0733842
-5.5609e-07
1.09265
0.318285
0.916
0.179041
1.35456
0.000516357
-1.92387e-05
-7.60012e-07
2.40582e-07
0.000376219
0.262417
1.24946
9.89505e-07
0.899124
1.36331
1.363e-06
1.23007
0.00596106
-9.85819e-07
0.508535
-1.68342e-05
1.14951
0.00282311
1.46384
6.58451e-05
0.018929
0.000394146
2.08092e-08
-6.03853e-09
-0.000283622
1.68289
2.69764e-06
0.494559
0.259836
1.79193e-06
0.0804989
0.976163
7.10666e-09
0.0168796
1.62182
1.44096
0.850121
0.495716
0.588234
0.934655
0.323998
-8.26612e-09
1.77699
0.968505
1.95037
0.00613781
0.903422
1.14705
1.43723
1.01772
0.904449
5.83875e-06
0.52378
-1.29197e-06
0.654771
0.93732
0.311697
1.70678
-1.77935e-06
0.0172562
0.301196
-1.66534e-10
0.972501
3.77383e-07
1.35326
-0.0524264
1.78726
1.597
-2.58662e-07
2.00249
1.48948
0.960645
1.2163e-10
0.910733
1.04608
1.57304
1.34474
1.42041
1.59164
1.69346
1.73009
1.18441
1.49871
-1.15483e-06
1.4931
1.0197
1.02913
0.818275
0.402333
0.00112256
0.00111084
2.06863e-07
1.02789
4.6048e-08
1.00603
1.45379
0.046785
0.010838
0.323502
0.559843
-0.11079
1.44555
0.857145
-2.82649e-08
1.03912
1.19939
-0.00295144
0.027076
1.46702
1.33063
1.16438
0.0517675
3.67896e-06
1.04138
1.00524
1.88793
0.989915
0.914527
1.36545
0.00130679
1.03228
0.770134
0.450243
0.0525358
0.954219
1.36524
-2.13416e-07
0.00557772
0.0648583
0.841952
1.91431
-4.08357e-05
1.48158
1.82457
0.337557
1.03327
0.386141
0.714937
1.00244
0.00161846
-6.46566e-07
1.5215
2.79831e-06
1.43658
-2.04634e-05
0.87172
6.14606e-10
1.45872
0.367694
2.79888e-11
1.53086
0.931406
-2.76355e-08
0.20253
1.05809
1.38139
0.916182
1.10741
-1.41071e-06
0.862009
0.91538
0.0149521
1.5411
0.789352
1.12283
1.46476e-10
0.475125
0.993135
0.424136
1.02026
-0.0179181
0.755708
-2.21116e-06
-0.000427575
0.949318
0.979427
1.36957
1.56457
-3.25753e-06
1.16856
1.39881
-0.000137682
0.369751
1.18346e-07
0.717993
0.00562143
1.02455
1.38399
0.947303
1.26733
1.54811
0.614451
-0.000380567
1.31487
0.904823
1.01766
1.84643e-06
1.19716
1.0635
1.36935
3.17286e-10
-0.000922234
0.279976
0.195125
0.960365
0.918418
1.11169e-07
0.029349
1.57028
0.223576
1.11318
1.03923
1.35165
1.57086
0.21619
1.48628
1.20102
0.010394
0.0175469
-4.55032e-07
0.878048
0.730716
1.02655
0.0685683
0.00316361
1.49595
-2.23211e-10
1.39704
7.28273e-06
0.275581
0.875845
1.37492
1.47404
1.5164
1.3169
1.37786
1.6745
1.23399
0.98315
0.00144634
-0.136941
1.27802
1.07308
0.0092224
1.54509
-2.09872e-10
1.01446
0.957736
7.15139e-05
1.48924
-0.140608
0.000435968
0.749922
1.52942
1.0715
-0.14512
0.933389
1.75171
1.60149
0.0683885
0.162159
8.15575e-06
0.117513
1.1781
1.61312
2.68167e-07
1.38121
0.908276
-5.21812e-06
0.989897
1.59511
0.826285
1.20977
1.04273
0.000144223
0.908515
0.297252
-0.0992188
0.888909
-5.76504e-05
1.73192
0.836737
1.60269
1.52514
0.359696
1.52577
1.7587
-5.87183e-06
-0.122981
1.19705
0.973314
1.5299
1.4703
1.36841
0.000455636
0.982869
1.40567e-09
1.0128
1.6846
1.55814
0.217623
0.193131
0.134302
-1.73017e-07
0.377351
1.43717
2.8152e-09
0.634083
-8.52807e-08
-5.79064e-06
1.80742
-2.68312e-05
1.56045
0.151276
1.07492
0.51901
0.851271
1.68942
1.04133
0.804574
1.03458
0.0259774
1.1542
-6.37101e-06
0.006934
3.19981e-05
1.6529
0.0340516
0.0635446
2.9443e-09
0.224067
-4.09566e-07
1.08073
0.191181
-6.21141e-07
1.08913
3.46377e-08
1.32573
1.30986
1.5084
0.574923
9.12613e-08
0.629956
1.3719
0.364515
1.45724
0.0320919
0.0185089
0.628368
0.767025
0.873835
1.30321
-0.00013678
0.1558
0.958427
0.000255165
0.0588375
0.633609
1.58184
0.992572
1.30629
0.342118
1.11653
0.905006
0.899824
1.43385
0.941096
0.00568812
1.52652
1.55869
-5.86116e-07
0.706192
0.613134
0.960586
1.41089
0.745055
0.838469
1.05444
1.1202
1.70755
0.755028
1.15754
0.420705
0.584372
1.68036
0.15435
1.53067
0.156437
0.247199
-7.01595e-05
0.650108
0.266166
1.40307
0.556031
0.279488
0.109877
0.0903854
1.15372
0.824141
-4.72412e-05
0.47115
-9.84574e-07
-0.0306442
0.636191
0.000843534
0.854208
1.22768
0.246569
5.2728e-09
1.39806
1.0691
1.60142
1.23108
0.294925
1.05397
0.670355
1.52623
1.15126
1.40743
0.0488769
0.864451
0.970571
1.5256
0.857279
1.7872
0.00230308
0.108665
0.511456
1.50823
5.11441e-07
0.722432
0.822066
0.835866
1.70706
0.588136
1.37243
1.14514
1.51941
1.20893
1.46407
1.42704
1.65402
1.645
1.24079
1.08939
0.600351
1.43562
0.995743
0.121751
1.48025
0.520199
0.972102
-3.12825e-06
0.81717
0.00085773
1.39877
0.870684
0.720323
0.431093
0.975901
0.690169
1.81248
1.8926
0.720247
2.61126
8.22147e-05
-1.87021e-05
1.36541
0.752095
0.134913
0.373978
0.993585
0.000173594
2.47217
0.48929
0.000221941
-6.00906e-10
1.10036
0.913205
1.09199
0.43771
1.40118
0.904123
0.941995
1.14091
0.936885
-4.1187e-09
1.41306
1.35711
0.735553
0.612382
0.893979
0.134849
1.17159
0.0986662
2.1437e-11
0.74935
0.966944
-9.06929e-08
2.17573e-07
1.71833
1.09137
1.12271
0.0757681
1.44912
0.918587
6.89608e-06
0.76309
0.234159
1.5584e-07
7.91877e-05
1.3604
0.304551
0.204326
0.946852
1.18642
0.932911
1.73987
-1.27609e-08
3.54688e-07
-0.000645661
0.790569
1.01032
0.538717
0.0345414
1.03421
0.000979235
0.0205569
0.641433
0.126935
-0.0266148
0.782658
0.0232961
0.739652
1.57541
0.10828
0.615729
1.08519
-0.000126619
1.18548
1.39282
1.16442
0.174872
0.0807862
1.12067
-0.00543449
1.67175
1.54371
0.272988
1.68935
0.0804153
1.55843
0.731483
0.748675
1.05562
1.18434
0.503394
0.90022
1.40134
-0.000722786
7.61507e-08
0.247349
-2.89484e-09
0.355033
-1.29293e-06
1.18796
0.593822
1.4993
0.0063015
1.09796
4.26128e-05
0.00951386
0.00486035
0.0945896
0.0528622
1.19023
0.801196
-9.78723e-05
2.03267
0.000174245
0.00371336
1.12202
0.820103
0.00229201
1.42719
1.52734
0.93898
1.07046e-08
1.30878
1.54428
0.000105173
0.265672
0.678814
1.50688
1.46405
0.38934
0.216368
0.021252
1.05759
0.624883
1.08935
1.564
0.969985
1.53739
0.585126
1.20619
1.59616
0.372942
0.160092
0.293917
1.03332
0.00254713
1.47956
0.768929
1.23639
1.33015
0.575025
2.13399
0.877709
0.105539
1.01809
0.445354
-5.96958e-06
0.238516
1.53118
1.68975
1.81086
0.502947
0.179606
0.947038
0.147686
0.309676
0.0038945
0.637647
0.747625
0.00961632
1.14205
1.58084
0.358266
1.5918
0.953101
0.972228
0.485793
0.254304
0.889902
1.72199
-2.08766e-06
0.961364
0.887765
0.000104651
0.00168529
0.0113064
-3.27258e-10
0.0167096
0.18577
-0.0530813
1.03752
9.20679e-10
0.000164298
0.918525
-1.37402e-10
0.250988
0.0828823
1.32693
5.20551e-05
0.369284
1.47934
0.0144053
0.883162
1.72075
0.678573
0.000166348
0.0311355
0.944687
-0.0109922
0.293202
-3.84432e-06
2.06509e-05
5.57078e-09
1.52099
0.87566
1.80558
0.157662
0.9859
0.478366
3.19162e-07
1.53233
1.52808
0.918336
1.31357
5.52004e-08
0.00906113
-1.27471e-05
1.50224e-09
0.000115859
0.000311143
1.21777
1.72414
-5.48633e-07
1.03022
-9.13018e-05
0.844253
1.18726
0.670434
0.39126
-5.71769e-07
0.329853
0.711651
0.341372
0.824855
0.360467
-0.051235
1.5119
0.361537
0.184195
1.02093
1.57206
0.743462
1.90513
0.305918
3.2676
0.168718
0.0155381
5.04494e-05
1.5232
1.55637
0.19207
1.09162
0.000340074
1.17409
0.744997
6.05564e-07
0.00671931
-4.30814e-08
1.15917
1.13017