/*--------------------------------*- C++ -*----------------------------------*\
| =========                 |                                                 |
| \\      /  F ield         | OpenFOAM: The Open Source CFD Toolbox           |
|  \\    /   O peration     | Version:  4.1                                   |
|   \\  /    A nd           | Web:      www.OpenFOAM.org                      |
|    \\/     M anipulation  |                                                 |
\*---------------------------------------------------------------------------*/
FoamFile
{
    version     2.0;
    format      ascii;
    class       volScalarField;
    location    "6";
    object      T;
}
// * * * * * * * * * * * * * * * * * * * * * * * * * * * * * * * * * * * * * //

dimensions      [0 0 0 1 0 0 0];

internalField   nonuniform List<scalar> 
26625
(
-2.56771e-13
-0.000720165
1.40234
0.0815626
2.47853e-14
2.44917e-12
2.04451e-07
-1.85527e-11
0.00392422
0.325431
1.19053e-19
0.00674643
-7.56669e-13
0.000138187
1.35565
-5.93587e-13
6.43575e-06
1.52369
1.59851
0.0828766
1.07004e-09
2.65607e-08
-1.99271e-20
6.47531e-05
-3.31425e-11
0.933802
0.00838794
1.74722e-06
3.9431e-13
0.000876129
1.54672
0.970834
-0.0355548
0.971021
5.88612e-15
5.23806e-16
1.43952e-07
1.44119
8.39786e-05
1.9136e-06
8.02715e-06
1.42
0.000235927
0.00390243
3.82857e-12
0.0197486
1.3795e-06
1.59246
1.48274e-06
-2.94923e-18
0.0732022
0.994994
0.0143384
2.11611e-11
0.992144
0.00175058
0.0218649
0.0699901
2.6209e-08
1.48887
-2.49068e-25
-7.74667e-14
-2.02073e-11
0.000399225
1.23649
6.04111e-22
0.0516985
1.54202
-0.0182843
0.000855633
1.43022
-3.06476e-16
-0.00111866
1.37576e-13
-9.47243e-21
0.00214424
2.49065e-17
9.69447e-24
0.700884
1.68567
0.947419
1.48317e-05
0.00785192
0.14873
0.00036
1.54422
-3.07214e-15
4.0207e-23
4.14844e-07
0.00143621
1.92323
1.46198
0.00617304
0.000620381
0.102111
0.0105373
0.939914
1.19646
0.00150429
0.91553
0.631608
1.41013
1.52006
1.38823
-1.44016e-11
1.03079
-3.0986e-21
1.39178
0.98031
-6.43831e-12
0.051676
3.03971e-08
0.00321477
1.38405
1.26184
1.51332
2.66088e-18
-6.65967e-16
3.47074e-06
1.46903
1.44342
1.15773
2.47837e-17
5.55641e-08
-1.20363e-08
1.46623
0.938934
1.82516e-24
0.0439254
1.05362
1.42329
0.111368
0.000937913
-5.72874e-11
-1.9695e-09
0.00244161
0.000264867
-8.16172e-23
0.0395858
-1.2032e-08
1.17755
0.223043
-3.45045e-09
-0.00032448
1.59703
0.0603308
1.05062
1.56627
2.21321e-05
-1.3129e-23
0.0339456
0.890796
0.640122
-1.49554e-05
-1.06094e-24
0.0695206
0.601703
0.532696
0.975783
1.53611
3.21802e-06
1.04594
0.357899
1.26267
2.04657e-19
-3.40874e-10
1.56225
0.842784
1.0652e-07
1.96964e-18
0.0205082
6.89005e-19
-1.34379e-05
0.010238
2.68483e-24
0.352053
0.861577
-2.82149e-05
1.32945
3.87943e-19
-1.25563e-06
-6.9569e-08
1.11615e-18
0.0747318
-3.12825e-05
0.860533
-0.000187231
0.929748
1.619
0.642167
0.00554842
0.212962
0.0572453
1.40327
0.00906833
-5.0824e-14
0.473779
-1.49521e-08
1.51511
2.95329e-16
2.71146e-07
1.46302
1.33115e-17
1.9014e-05
-1.55225e-18
0.0398299
1.00501
1.49181
2.77635e-08
0.0335738
8.85975e-20
0.530125
1.38303e-13
1.02349
-1.24716e-10
0.225505
-0.00152641
8.40785e-07
8.40636e-06
0.866964
1.46763
2.03951e-19
1.44752e-20
2.19137e-07
2.35873e-05
1.484
1.14305e-15
0.652936
3.22823e-05
-0.000350736
1.35757
1.08872e-05
1.42444
4.57537e-05
2.32913e-19
2.55684e-05
0.0970678
4.25355e-05
-9.84995e-20
0.591115
0.0116639
0.0635356
0.169298
1.48973e-18
1.06867
0.000256887
5.57515e-08
1.48091e-16
-2.69447e-20
0.039492
1.57034
4.79011e-07
3.49682e-08
0.187117
1.31322e-06
1.99519e-07
-1.9152e-22
5.43237e-10
-0.000290399
0.678033
-1.82244e-12
1.74495
0.0288582
0.000102071
1.36695
0.256583
-1.16885e-17
1.82811e-14
-3.48252e-07
0.227388
0.000101094
1.51852
1.26873
3.36802e-05
0.354075
-2.35763e-21
0.013809
0.0566385
0.0291956
-2.24125e-06
1.1224e-07
2.62221e-20
0.0286321
0.225399
0.068739
5.28862e-18
0.121131
-2.1079e-13
1.46738
8.47249e-08
-8.46048e-20
1.27237e-10
1.26093
0.00176526
0.00408927
-1.17491e-23
-1.65708e-24
0.142324
-2.5827e-17
1.42678
0.900236
1.0767e-10
1.46074
-4.23179e-15
0.00816869
5.88696e-25
-8.30046e-17
2.57215e-10
5.01871e-20
4.04897e-08
-2.08217e-07
6.51257e-28
-3.05781e-22
0.0706064
0.0254771
-9.2194e-05
0.000344328
-7.53473e-07
0.373747
0.00132297
-8.83365e-25
0.000300601
3.55686e-07
1.34498e-07
-1.20316e-23
0.000246138
0.187527
1.55229
-2.69528e-05
2.28855e-05
-0.0221912
-1.36519e-10
0.905689
1.21317
0.0316354
2.17405e-07
0.0750383
8.46661e-07
6.66231e-25
0.815967
1.67427
0.529093
0.952033
3.54806e-05
0.0239906
0.120795
0.0966364
0.00127181
2.49549e-07
1.37989e-06
1.52236
3.48305e-06
1.91948e-05
1.69442
0.000100338
0.0653021
0.00599461
1.605
1.16831
1.62661
0.518279
-2.19792e-18
-0.0143229
1.01945e-06
1.48325
0.00117282
0.000503557
1.612
1.04642
0.00038292
1.57312
1.40831
0.00159508
-2.37838e-18
-9.55644e-12
0.919881
0.00028468
2.5676e-21
2.91677e-23
0.247336
1.01211
0.218208
0.0185579
0.0639185
0.00383863
-0.0218874
1.03818
0.000179785
4.30841e-06
1.55008e-05
-1.47252e-21
-1.25894e-10
1.19364e-05
0.167677
2.90816e-05
0.322616
0.265618
1.31944e-05
0.448542
0.0279815
0.0768089
1.0447
0.100628
8.9019e-18
2.36609e-12
5.12098e-05
1.26282
-7.35947e-09
-3.19176e-06
0.736466
0.0452214
1.13043
-8.44261e-14
-7.39444e-18
0.000146317
0.100405
0.00158746
0.0797676
0.162479
3.71551e-15
-1.33763e-20
2.1214e-14
1.10909
1.09324
-7.79766e-07
3.77328e-10
0.936362
-0.00130556
3.19492e-18
0.00105488
0.353146
0.0275096
5.0655e-05
9.09136e-18
0.223577
0.140181
1.95341e-20
0.000152833
-1.03941e-08
0.193023
-0.00101476
-7.87494e-17
0.0255023
0.0668917
0.0751564
1.80963e-08
1.81152e-25
0.119207
9.70833e-07
0.0885304
-0.00655911
0.815595
7.64859e-19
1.0031
3.25877e-08
4.05168e-08
0.000290996
2.93074e-20
2.06399e-12
1.33858
0.022648
1.55084
8.42028e-11
0.0292047
-2.4304e-06
0.0174551
5.16659e-25
0.000786703
0.00550853
-2.43474e-23
-1.2984e-16
1.11635
2.09496e-05
-0.00154552
-1.62522e-05
1.05463e-15
0.725019
-0.00108108
0.130848
-3.83134e-19
1.03984
-4.56309e-13
1.40892
5.2458e-19
3.17091e-07
7.87254e-08
0.00189874
0.0376005
0.00386177
-2.45204e-12
0.363572
0.765141
-1.27312e-12
0.0969188
-9.33512e-19
1.55601
1.04324
0.869031
0.0112741
3.74817e-13
1.5435
1.19974
1.30918
0.00812351
0.704029
-8.66234e-20
0.000113286
0.963173
0.0760261
1.61926e-12
0.00521571
1.06156
1.15999
1.38082
-1.89275e-13
2.41431e-17
-5.85623e-05
1.46959e-08
-3.2902e-10
0.788412
0.896849
1.56382
-6.69121e-22
-9.88705e-06
-0.000205268
1.3817e-18
0.831682
0.00838781
-0.000108451
1.78093e-11
8.97527e-12
1.41273
0.318762
-0.000291686
0.362886
0.677213
0.259021
0.00248072
0.042191
-2.61466e-12
0.000107728
1.22337
-2.3695e-18
1.53575
0.000232007
0.00226819
1.19714e-07
7.0454e-08
-4.62075e-13
-7.13741e-14
1.23828
1.31712e-11
1.42889
1.41717e-06
-8.17176e-05
-0.00198042
0.513902
-0.00153692
0.35689
0.818206
6.63261e-05
6.16875e-06
1.03713
1.41161
-2.42151e-06
1.14031
3.92534e-19
0.0343667
1.4981
7.93238e-18
-1.42137e-10
2.71385e-12
0.350493
0.0146862
0.551927
1.45058
1.96663e-22
0.916015
9.0799e-16
8.04533e-07
-7.16091e-17
1.01478
4.30782e-06
0.0532038
0.000107652
-2.89293e-08
-0.00893627
2.1856e-07
0.263231
3.55811e-06
5.72864e-05
0.250927
1.51763e-06
9.04456e-21
9.18782e-09
1.30357
0.783945
0.00901871
0.0052898
1.76827e-07
-2.32595e-15
-0.000247969
0.954248
0.00907651
-2.08949e-17
0.00240856
1.61141
4.93714e-05
1.14074
-1.12254e-06
1.15537
1.21324
-1.17328e-08
0.850368
0.0915177
0.00589543
0.00954901
1.29475
2.87983e-11
1.22858
0.0197789
-3.80737e-16
0.000268239
0.0448479
-0.00639093
1.49627
4.13606e-08
1.83087
0.0156815
-0.00368209
3.63434e-18
-9.13144e-05
0.00548256
-6.98331e-08
-6.29386e-07
1.11696e-17
3.37465e-05
-0.00371059
0.0012118
0.0228993
-2.17712e-19
2.8727e-11
0.912166
-2.54168e-12
0.0188627
0.331858
6.35852e-07
0.000137329
-2.30628e-11
-1.91414e-18
0.855986
9.65027e-09
2.03361e-16
1.25953
1.57716
0.088629
4.06376e-07
0.000304194
1.40379
0.480156
-1.1242e-14
1.28421e-06
1.37705
-3.33972e-13
0.822297
-0.0363541
0.381774
1.79306
0.0114483
-1.76522e-17
0.00115215
0.141173
1.19868e-15
1.27826
8.78542e-24
-8.70672e-16
0.395764
1.56874
8.27744e-07
-8.48151e-16
0.320894
-7.65363e-11
-0.000383012
1.4161e-16
-9.72652e-08
-2.10249e-21
1.55751
-3.4712e-08
0.034535
-1.95774e-05
-7.32697e-18
-8.27777e-25
5.80308e-11
7.55595e-08
3.41923e-17
-4.12303e-11
6.33427e-07
1.18452
6.30889e-06
0.0138726
3.89406e-06
0.000536313
5.31347e-11
0.000342171
-5.05732e-23
0.0547484
3.4109e-14
0.0496978
0.00405709
0.775954
-2.73402e-22
1.63796
1.1695e-13
3.53452e-23
3.4811e-22
1.06487e-15
1.1679e-22
1.18428
1.78773
0.000282635
9.99516e-09
1.03194
0.0352443
9.48609e-25
0.291935
1.25652
8.26661e-20
0.186394
9.06572e-09
0.00477463
5.9022e-09
-2.88871e-09
0.0139893
6.00725e-05
-2.65152e-16
1.47941
1.53614
0.65373
0.00846936
-1.70466e-16
0.000134542
0.00036366
1.21065
0.00123607
3.50391e-08
-6.98954e-23
0.844246
0.00364518
0.0165932
0.86202
0.00403052
1.04128
1.50329
-9.63599e-17
1.19592e-06
0.00918492
-1.09525e-09
9.97165e-05
0.0182653
0.367648
6.93073e-15
7.36304e-08
0.0831497
0.00150674
-1.41337e-08
0.0533102
3.62804e-21
5.30396e-17
0.636116
-1.79221e-18
-2.31192e-12
-6.79082e-12
0.104688
0.0941742
-1.17765e-18
1.50871
-4.08098e-09
0.0075658
-8.86069e-12
1.93847
1.03271
4.21719e-12
0.918693
0.00373021
0.0728533
1.65251e-11
1.10962e-06
1.3015e-05
1.63459e-12
4.69281e-05
1.23965
0.000204079
0.00228
-0.000930723
1.4151
1.46829
0.0960352
1.38208
1.61429e-06
0.000540172
0.00566923
0.00233345
1.46087
0.00769648
0.990401
1.60756
0.00433807
0.00352918
1.7785e-22
8.50371e-07
5.16228e-19
8.79231e-15
1.52927
-0.00152751
-2.90189e-15
5.65536e-07
-2.57779e-17
0.00171258
0.00416109
0.450091
3.19033e-05
1.00447e-24
-3.79639e-18
1.42557
0.000189103
1.10783e-19
1.06065
0.548065
-6.58045e-12
0.0216751
-0.000850395
-3.29841e-09
1.73349
1.54942
1.12503
1.05585e-16
1.47605e-07
0.0919451
1.24769
1.01021e-16
2.80026e-06
-1.41037e-15
0.0897768
3.67518e-07
0.237673
7.52675e-12
-3.50522e-12
1.41804
-0.0193912
-1.2151e-16
1.49132
0.0209449
0.121383
-5.23561e-15
-3.28905e-24
0.435022
1.70903e-05
-3.39292e-08
-0.00384071
0.00056553
1.4322
-0.000296576
6.76722e-19
9.84601e-09
8.29891e-08
2.94422e-06
0.0683271
0.0344899
2.12651e-19
1.46544
8.90811e-20
0.157572
-5.51757e-10
-6.55271e-11
0.0218882
5.32373e-07
1.59158
-7.33232e-25
1.00455
0.00073596
9.87393e-09
7.9285e-11
-8.63364e-08
1.49213
0.00584426
5.15021e-07
0.149068
0.00153153
-3.36641e-20
9.35129e-08
4.78355e-17
9.87126e-06
1.00216e-18
-1.46302e-06
3.73286e-17
1.25376e-11
-0.000190772
0.065155
0.0996288
2.01019e-07
0.000279971
-5.84612e-19
-3.5752e-16
1.5481
0.027007
-4.86231e-09
-6.2382e-12
-0.00304364
7.12335e-20
0.000979121
5.09013e-08
-0.00352588
-2.07528e-16
1.28379e-24
0.0004675
0.581704
-7.43671e-21
2.77738e-11
1.57022e-09
1.40608
1.01906
0.000603289
-7.08399e-21
-0.000938051
-2.21701e-22
-0.000359587
0.585412
0.000187423
-0.000322004
1.53346e-05
1.10462e-07
-2.44252e-19
3.50566e-07
1.52578
0.23136
6.55418e-09
1.56775e-18
0.000123795
3.02834e-24
0.031107
1.36993
0.000609875
3.71677e-05
0.00041906
-5.74311e-17
4.16693e-08
1.35707
0.0202166
0.00945498
4.80278e-21
1.31569
-5.00507e-21
0.000910612
0.550055
6.46042e-05
6.10592e-15
-1.01449e-13
-9.10644e-16
1.29655
1.00672
0.846301
9.98826e-07
1.53598e-12
1.23313
1.00129
0.993286
-5.12861e-07
1.99689e-16
-3.36524e-22
0.896029
-2.53676e-11
1.37617
0.0046886
1.09132e-07
0.0389686
8.19763e-09
-3.89431e-09
0.95236
4.00075e-20
2.37214e-06
0.00256809
1.01723
1.06042
7.08899e-12
-4.93766e-14
1.39634
-2.23802e-18
1.02623e-16
3.16201e-07
3.99734e-21
1.10204
1.01633
-8.94895e-13
5.72035e-07
-6.88198e-13
5.38469e-08
0.0156651
0.0550367
-1.09023e-06
-4.02103e-19
4.99999e-06
0.0235433
1.78439e-13
1.98368e-05
7.3501e-05
0.0171012
1.55324
0.000595824
0.772037
-1.65319e-09
5.36359e-16
2.98186e-07
0.0866568
1.46876
-2.38015e-17
6.55163e-05
1.02728
-8.15541e-22
0.97371
-1.63915e-13
-1.0223e-13
0.000142764
0.0246388
1.85784
0.997186
6.85345e-12
2.47531e-06
0.996264
1.4903
0.000318503
0.0406772
0.491217
1.50913
1.0014
-4.19154e-19
-0.000217822
1.9457e-05
-2.50669e-13
-0.000105796
8.52313e-07
-2.7542e-11
0.999129
1.01885
-0.0329764
4.48346e-21
0.0839962
7.58546e-06
4.33462e-06
4.59188e-08
0.049074
2.68207e-06
-5.60922e-07
3.57106e-13
1.62864
-4.13991e-24
-0.00237836
-1.29548e-17
1.46417
1.48633
1.4668
1.46604
8.30963e-17
0.00192802
1.02895e-19
-1.32938e-19
1.08354
0.00243525
-6.7033e-08
2.88916e-05
0.102122
0.148728
0.000524082
0.00875409
1.27138
1.92283e-09
1.64728
7.99985e-15
0.010683
1.43821
1.29357
2.30294e-08
1.32524e-18
7.46988e-05
-2.94985e-17
1.51916
-6.04416e-22
0.972498
9.83191e-05
-8.68085e-08
-4.09793e-18
2.62538e-05
0.0108641
-1.92926e-06
3.74596e-07
0.747352
-7.31019e-18
0.483751
0.943537
0.0781762
1.48508
1.30333
0.00183956
2.6433e-17
-3.42729e-08
1.33252
-2.7158e-18
1.60798
0.105062
2.75095e-08
-4.97367e-17
0.0208715
1.50456
0.00436542
1.39111
0.0720677
0.0750178
0.168529
-3.68443e-16
2.87131e-17
0.229313
0.618303
4.75454e-07
1.04415
-4.6031e-12
-1.26547e-18
2.55004e-22
-7.90264e-12
0.409713
1.19108
-4.03931e-09
7.75011e-05
3.94878e-20
5.91576e-05
3.55441e-05
-7.03132e-20
0.0270069
7.05033e-06
0.0499283
0.181032
0.0747123
1.10282
2.03308
1.52706
0.995023
1.55724e-05
4.92131e-13
1.21716
1.72486
-7.25722e-23
8.3754e-05
-4.87011e-05
1.4944
0.0240137
2.66329e-07
-1.85283e-21
0.000173261
1.65726
0.737775
-0.0470317
0.630095
1.83566
0.0102756
0.19401
0.710456
2.98552e-06
7.28406e-21
0.0766715
1.53428
2.53505e-06
1.67915
0.0316433
2.96256e-13
0.25293
4.54127e-08
-1.39567e-08
6.01113e-07
1.01071
-7.93587e-06
1.14265
1.43482e-13
0.0299081
-3.44021e-06
-1.33834e-14
0.0843122
0.000716521
0.0348445
1.48043
0.046941
1.94976
2.32258e-05
8.94793e-23
3.43234e-09
1.49766
-0.000480472
0.843833
0.000414783
-3.01761e-15
7.93809e-23
-1.46449e-11
1.94504e-06
0.000200249
-2.22478e-07
-3.49726e-16
0.00846196
-1.42437e-07
0.163749
1.30877e-10
-5.45719e-05
0.205201
3.82964e-05
0.0708153
1.94414
-4.36059e-18
-3.3377e-25
-1.32252e-09
0.00229795
0.0058251
1.66265e-07
-0.000736411
1.64198
0.025624
0.000335784
1.61962
1.48779
1.61231
1.41016e-15
0.000575246
0.0152571
8.24493e-08
-4.81772e-16
0.000135896
-0.000808417
9.29586e-06
0.705004
1.66088e-05
1.52071
-5.58061e-09
1.72702
1.61208
0.302433
1.4682
1.29883e-23
-0.194815
0.0393461
-3.11879e-21
2.20719e-07
-5.50937e-10
0.00118618
1.97062e-06
-2.74945e-10
-0.000130465
0.101848
0.000471678
1.84533e-25
1.05395
0.00215027
1.58536
1.4914
1.46702
0.00247822
1.78268
7.03187e-07
1.33382e-10
1.62407e-16
2.33869e-25
-8.10568e-08
1.33678e-06
5.35318e-05
0.000384364
4.60195e-25
0.991838
-1.46163e-26
0.00584734
-6.02409e-22
0.408268
0.851521
0.0538502
1.21663e-16
-2.6196e-21
6.14515e-07
0.929398
1.02203
0.080007
0.000175716
0.0332901
-7.43833e-18
-0.000260121
4.91117e-05
0.000904279
1.66072
1.31734e-14
0.935418
1.62706e-05
1.31226e-07
0.00740179
-1.26621e-19
1.04661
1.467
1.65954
0.0766109
1.04835
0.344374
-2.27766e-11
0.549008
0.867769
1.31271
-1.29226e-15
0.0292839
2.78781e-15
0.00241494
-7.74597e-05
-2.84573e-11
1.05304
-2.94317e-08
0.00020374
0.000346663
1.00894
-4.61275e-05
2.28032e-08
0.00420046
0.23909
1.02317e-18
0.992957
-0.00790089
1.42716e-13
-5.05397e-21
-1.60129e-17
1.11811
0.975116
1.66551e-05
0.0727363
0.0116097
0.00110281
-8.15971e-11
6.92328e-24
1.55978
1.30831
0.922441
0.0106423
0.0158789
1.63971
3.8667e-06
-0.00174869
-7.38476e-08
-2.71215e-13
1.92497e-05
1.35629
0.0120854
4.06207e-07
1.64048
0.00317905
-0.00726208
-4.29289e-19
-0.00298925
0.00806397
8.9415e-07
3.20665e-12
0.116886
0.0388492
-0.000276211
1.00472e-08
3.29656e-19
0.0592861
1.52588
1.43829e-17
-0.000139119
2.04264e-22
-4.59539e-16
5.3623e-07
1.39015
2.46338e-05
1.54271
1.58935
7.79614e-22
0.00015166
0.744515
-2.09596e-15
0.899116
-3.98607e-08
0.0132295
1.44714
0.0686387
0.142732
-0.000615602
1.56669
1.45244
1.24296e-13
0.000278912
3.78129e-18
0.000742713
0.584003
0.0379962
3.73797e-05
4.11562e-09
1.08222
1.40932
1.15604
0.0220314
1.39918
1.56636
1.04275
0.0319644
-2.60061e-14
0.0869421
3.59504e-07
8.05613e-16
0.0450123
2.20355e-05
-7.5938e-05
0.0434996
0.382248
0.234643
0.0893956
2.99701e-07
-5.05101e-17
0.180491
1.4194
5.26362e-15
-4.98422e-24
3.87168e-06
0.0464549
4.34965e-05
-5.93239e-09
0.0961719
0.0464807
0.00134947
-7.38777e-08
1.33068
6.72372e-06
-0.000351816
0.992705
8.25173e-06
1.60875
0.00213187
1.39017
0.000305853
1.85295e-07
-2.06631e-08
1.51774e-06
-6.50757e-20
1.44696
-3.34819e-08
-5.46577e-17
3.50599e-06
0.000972874
1.31414
-1.18825e-15
0.981991
1.42983
0.0218968
2.57671e-08
1.68712e-18
-2.87341e-07
3.9578e-22
0.000531788
-4.58377e-05
0.220673
0.0208661
6.58664e-08
1.82628e-05
1.21702e-08
1.61879
2.42897e-17
6.74616e-11
-0.000263958
1.2082e-07
-2.2454e-10
0.951451
3.71887e-20
1.03294
0.000195244
1.5867e-25
-0.0028902
-0.000150614
0.727796
2.2162e-05
-7.05862e-15
0.0398764
-4.90799e-05
3.78365e-21
0.329459
5.38307e-19
-1.85406e-08
6.35346e-19
1.35205
-4.64706e-12
0.186176
7.31329e-05
1.60139
0.0286208
1.19705
0.0986332
-3.64576e-17
3.51199e-06
3.85255e-06
0.000248487
0.000327141
1.10536
-5.8238e-10
1.60496e-19
9.06675e-08
1.30394
0.203151
4.90999e-17
8.98725e-07
0.96985
0.00120357
-5.22119e-06
0.00143717
-0.0114407
-0.000511705
-1.60984e-12
1.95881
4.94511e-20
3.61952e-06
0.021528
1.59643
1.52847
1.32794
-4.16909e-22
1.45021
2.88141e-16
-2.52359e-10
1.44131
-3.18205e-05
2.86312e-17
6.72279e-07
0.178994
0.0111252
5.32517e-05
1.44791
-1.7687e-09
0.0303355
0.00280007
-9.1008e-06
2.87089e-14
3.91794e-21
1.10824e-15
0.03597
0.936664
0.872201
0.00757187
-0.0022678
-3.9608e-11
1.43892e-18
0.00536555
1.20376e-08
1.40966
6.54249e-20
2.45939e-07
0.00529795
1.27769
0.00630974
2.49616e-15
-0.0155408
1.20649
0.010019
8.68156e-17
-6.56278e-10
1.04652e-05
1.67346
-2.62113e-19
1.51772
0.000934877
6.4035e-19
-9.65548e-12
-1.36997e-15
0.372644
1.94517e-08
1.18059e-07
8.69049e-05
0.212385
0.14006
4.30108e-06
0.145037
0.000521649
-0.000261454
0.605064
7.99901e-09
1.41038
1.40222
0.0246651
1.01585
1.46361
0.102469
0.499871
3.64634e-08
6.54353e-06
0.0387135
2.71882e-13
5.87123e-08
0.000541435
0.0733304
-3.09275e-14
2.32339e-06
0.000182837
-1.70267e-05
1.03737
0.321755
3.86077e-19
0.52812
0.0534283
1.71753e-16
1.33737
5.71058e-22
1.14845
2.09385e-09
1.65833
-3.88567e-20
0.037582
0.00981634
4.43834e-06
2.13519e-06
4.70927e-18
-0.00251451
1.39408
0.00103779
1.52865
-1.46455e-19
3.21699e-12
1.28791
-1.56608e-16
1.48734
0.507048
1.53166e-15
4.26923e-22
1.91709
1.48531
0.0372878
6.24746e-05
-1.6276e-16
-1.35491e-20
1.39811e-13
-1.71027e-24
2.06315e-06
0.656715
0.49446
8.33994e-09
1.04391e-09
0.334725
-2.98527e-15
0.00155933
1.48107e-19
6.88981e-09
0.0230269
5.33275e-19
1.13332
0.00206495
0.961838
3.99582e-06
-3.39202e-13
-8.57543e-15
-1.0422e-07
-2.38045e-18
-2.38402e-08
0.38708
2.79914e-06
6.14853e-05
4.04578e-06
0.219247
2.10191e-08
-2.13867e-06
0.000154464
-1.56026e-05
6.17579e-07
1.5278
5.13268e-25
3.48299e-06
0.920086
0.770193
0.231481
-4.30651e-17
1.02502
-0.00118805
3.03135e-15
0.588263
5.07878e-18
0.0421194
1.00334
1.98832e-19
3.2065e-20
1.44648
-0.000942337
8.55752e-05
7.1799e-19
0.00254499
1.13755
2.1916e-06
2.43436e-10
-1.52434e-12
5.72932e-07
0.00239541
0.00776978
1.04521e-25
3.65446e-05
1.03603e-06
0.989239
1.00522
1.30817e-24
-9.18354e-06
0.000245434
2.40089e-16
1.5804e-06
-2.49259e-21
1.28363
-2.7345e-25
1.43347e-25
-1.89464e-24
-1.70813e-05
0.273861
1.37298
-4.00269e-06
-4.55156e-24
2.41682e-20
-5.49138e-22
0.00227891
2.94573e-16
0.896135
0.131664
0.988889
1.13955e-13
-1.53938e-14
4.22822e-09
0.0271192
1.54741
0.04712
0.0712536
1.14548
-9.25096e-20
0.984236
-2.58708e-05
-6.19013e-19
1.03834e-12
2.612e-05
2.30208
0.0158284
8.18911e-13
0.0644792
0.0121601
0.00497294
0.253914
3.62989e-05
7.44649e-17
0.0100222
7.70018e-17
1.29773
1.22813e-16
-1.36807e-25
1.27358e-15
7.75871e-06
0.99843
-1.18803e-15
0.869237
-4.1445e-22
0.00300582
0.000977989
0.00560922
2.6265e-10
0.432268
1.07254
-2.70142e-13
0.000693949
0.331128
-1.97278e-10
0.00162379
1.32098e-14
1.39984
0.620422
6.14676e-06
-0.136251
0.000143671
0.210685
5.85349e-13
0.0613923
5.31648e-20
-1.15271e-24
1.00026
0.0735023
3.17251
0.0626755
1.16426
4.72877e-09
0.113275
0.871213
7.7191e-17
-1.67717e-13
0.00688294
-1.37534e-10
1.64635e-16
1.68165
1.07115
1.54478
0.0279952
1.60928
0.20165
4.45528e-06
0.00209298
0.794248
0.0283746
3.53047e-05
0.00504782
7.94293e-07
-9.66455e-08
-5.51401e-05
0.332871
0.224065
0.951589
5.01521e-15
3.34814e-15
2.15266e-07
0.985261
1.1184
0.00397122
0.994527
3.58395e-12
2.16342e-06
1.01784
-0.000188847
1.44359
1.42864
0.0365033
1.21437
4.62041e-15
1.40233e-05
-1.41729e-12
0.977794
0.31325
0.941728
1.35843e-18
0.99068
0.0131196
9.47232e-24
-9.83937e-20
4.78807e-10
6.07261e-12
1.18985e-11
-0.00112116
-0.0024639
0.00271055
6.33173e-06
3.57705e-16
0.0490454
0.792429
1.37583
0.00938013
0.644037
-3.34529e-19
6.07245e-16
0.876049
-0.00617386
1.58493
0.0120664
0.0512193
5.94338e-15
1.14728
2.86713e-07
1.58151e-06
0.140154
9.60048e-10
0.278561
0.812654
-7.94653e-16
-4.44262e-15
1.03018
-5.1246e-09
8.92322e-05
1.48721
0.000278977
5.88892e-06
0.881123
0.0114933
0.0126863
0.0348771
-1.69354e-08
3.71077e-20
1.03316
-6.60793e-11
0.0211081
0.708865
1.85721e-06
0.000326718
1.50558
-2.29167e-14
1.31701
0.0355184
4.30424e-06
9.25485e-13
1.82618e-10
3.7845e-09
0.59794
-7.11556e-14
2.24921
0.297826
0.0236171
2.47058e-22
0.991813
-1.93917e-08
1.05911e-05
-0.000136956
1.71658
0.022915
-2.17786e-23
2.86907e-08
1.76757e-05
1.52587
2.1824e-16
1.7196
6.27487e-05
2.56263e-20
0.0145303
-7.21627e-23
-1.39901e-06
0.382664
0.379012
0.486048
1.05061
6.97205e-18
-5.69034e-08
3.10785e-05
5.0478e-08
1.32614e-07
1.51439
1.25914
0.61345
6.57177e-17
1.3909
1.62437
-6.52306e-19
-1.17955e-22
1.87676
-0.00029384
1.36857e-25
0.163861
2.57363e-08
1.04121
0.0170994
-1.25121e-18
1.02063
0.00743448
1.6104
-7.56118e-20
0.6387
0.369615
-1.14771e-13
-6.10178e-12
0.000454162
6.88834e-06
8.32264e-14
1.14424
-6.97514e-17
1.39721
0.706936
5.06131e-09
0.0387287
5.04584e-05
0.0827346
-0.00478943
-0.00221535
-0.000217266
0.407123
0.709708
2.3853e-07
3.92561e-10
2.20839e-10
1.44003
-1.72644e-18
0.0127182
4.46964e-17
0.000163303
1.22841e-15
0.176183
0.424909
1.5226
0.0754527
9.9199e-07
0.336337
0.884807
-3.87958e-11
1.13129e-11
-7.27694e-05
-1.31075e-10
-2.25297e-05
7.05674e-07
5.39229e-06
1.41736e-21
2.18677e-17
5.17972e-08
2.479e-08
1.32415e-21
2.25737e-18
0.00716371
-9.23599e-08
0.000215825
1.7647e-18
1.63019
0.0799504
1.47856
0.505669
1.39587
1.40564
1.47964
-4.37299e-19
1.75108e-13
1.06251e-07
8.0905e-05
0.11231
0.00637439
-1.11358e-14
0.92868
1.04676e-15
1.0173e-14
1.82346e-22
1.58882e-06
1.04109
2.04133
0.000985369
0.178026
8.79316e-22
6.08435e-07
1.1904
1.53192
1.21744e-06
0.00588748
0.986561
2.64255e-05
1.78181
1.47451
0.167997
0.0277514
4.13695e-05
0.471452
0.91211
1.66473
0.0406641
0.0012054
4.76689e-07
9.48508e-17
0.6993
0.20735
-7.50352e-15
1.60699
1.59282
0.00110017
1.01896
2.77454e-15
-2.77232e-22
1.35509
-0.00113692
0.14857
0.0128836
0.181823
1.51054
5.7727e-07
0.960565
9.78856e-12
0.0178569
0.000341554
-3.97875e-19
1.62867
2.30412e-05
1.20342
0.52235
-0.00616346
5.64502e-06
-1.82274e-08
1.55134
8.64834e-05
0.00632463
0.0084265
-1.30113e-22
1.84694e-13
0.969786
-1.23975e-13
-1.5329e-05
1.20855
1.1063
4.95597e-19
-6.99641e-17
-0.00175219
-0.00012312
2.44915e-08
-0.000196752
1.47046
5.65762e-07
0.00487631
3.40815e-09
3.5279e-05
0.0446901
0.383195
7.72877e-16
0.0144101
1.40111
1.41159
3.98603e-10
7.03905e-12
0.264898
-0.000203285
-4.95302e-07
-4.28799e-16
1.20728e-20
1.83119e-07
7.07911e-06
1.40037
-1.10469e-16
-1.75087e-22
1.46791e-13
0.0170916
0.00190834
6.94872e-05
5.89785e-07
2.75574e-19
9.96624e-16
7.43982e-05
1.07772e-06
1.59762
0.00218505
1.5039
3.99285e-06
0.000707287
2.44307e-13
1.35482e-06
-1.83424e-19
0.0486017
-5.17512e-11
0.225896
0.0625676
0.0125077
-5.1072e-15
-4.4608e-16
0.966031
1.63246e-09
3.69764e-05
1.02714
2.93241e-16
0.00188542
0.000479709
1.27791e-07
1.44402
-1.07798e-05
1.19954e-12
0.663821
4.38905e-13
-6.58352e-12
3.53456e-05
4.62748e-12
0.000133333
-9.57832e-17
0.00354352
-7.32028e-12
1.44481
7.92895e-08
6.45375e-07
-1.22764e-17
0.645329
6.16793e-15
0.747847
0.00281208
-9.22436e-09
-1.69218e-13
4.14009e-05
-1.14827e-11
0.350191
1.10632
0.155852
0.721651
0.323879
1.51774
-1.87274e-13
1.70026
-1.20302e-06
1.98215
0.000151317
-1.3826e-15
9.2435e-15
0.294194
-4.27022e-22
-1.54876e-17
0.0606815
-4.51407e-12
0.00448202
0.147961
1.5542
1.68443
6.07558e-19
1.34689e-11
6.25375e-08
0.986672
5.80315e-16
-5.81157e-16
0.0615995
0.341522
6.58249e-05
-5.58109e-07
1.14074
5.15528e-18
-2.71142e-19
-2.6658e-09
0.0418252
7.44772e-20
0.947354
1.12404
8.07006e-07
6.17041e-09
1.54748
0.880968
0.000623849
4.64752e-06
-5.73108e-12
1.38396e-17
1.74626e-06
-1.84315e-07
-1.01892e-13
1.28412
1.81085e-13
1.20513
0.272252
-9.08578e-09
0.00475092
1.65253
-5.93101e-23
3.36535e-08
0.868679
-1.44997e-12
1.40346
-8.17295e-06
-2.63658e-06
-4.02996e-10
8.51138e-05
-6.15901e-24
0.803496
1.52201
-1.87533e-14
-1.01093e-05
1.52127
1.55818
0.985599
0.0398397
-0.111243
8.52701e-07
4.50721e-08
-4.26651e-08
1.1715
3.69904e-18
5.0047e-06
0.00472895
2.3035e-07
3.62096e-06
1.3747
1.29815
5.53258e-08
-6.27875e-18
-0.00026448
2.70234e-16
-3.20792e-22
-6.84068e-14
7.97004e-08
2.46241e-08
9.16611e-25
-3.69543e-23
2.05207e-11
1.47241e-07
-6.02239e-12
2.52358e-08
1.48964
0.68929
4.55266e-24
0.0299558
1.75219
-5.66407e-27
-0.000852186
1.28093e-08
-0.00262274
1.06775
-0.000367907
1.5025
3.03081
-5.90884e-06
0.000730818
-1.08808e-09
0.282636
-1.64976e-10
8.59948e-06
9.3412e-10
2.16793e-14
0.534229
6.04332e-07
6.05755e-06
0.0170239
0.296262
1.06257
0.00868447
1.04139
0.00045413
0.0402141
4.3095e-09
9.53949e-05
0.00347501
-1.23208e-22
2.04228e-06
-1.18478e-19
9.39624e-10
0.0747059
0.000447767
0.967027
-2.91972e-19
3.91723e-13
1.16621e-13
1.23815e-19
1.53952e-12
8.30126e-14
1.70337
0.0674567
-9.07559e-05
0.417663
0.00016525
3.77925e-14
-0.000109591
9.13277e-08
0.0390415
1.38319
1.62955
1.38993e-06
0.0138725
0.0167738
1.04102
0.0620053
1.51941
0.0059395
0.00208343
1.40947
1.30956
1.08059e-21
0.0264702
0.948348
4.67575e-17
8.24926e-11
0.418716
-0.000102087
5.43942e-08
8.28876e-17
0.00569992
1.34225e-17
3.57836e-15
-1.41164e-21
0.157132
0.015634
5.80644e-15
0.900921
6.83243e-05
1.48178
-0.0555367
0.00294899
1.53774
0.393042
3.26821e-05
1.22231
9.00156e-18
7.38064e-07
3.07448e-07
3.56048e-06
0.139086
-3.11768e-19
0.321622
-1.47936e-11
-0.00143136
1.02963
1.90672e-07
1.01276e-05
-1.37994e-14
-2.37722e-21
0.0941801
0.0402395
1.53326e-18
-4.86705e-08
4.40007e-07
1.05561
1.50799
1.08648e-23
0.496541
1.55905
1.5842e-10
-3.72914e-09
0.463632
1.7104e-07
-4.60403e-08
-2.72938e-17
-2.85741e-22
-3.27378e-18
-5.66505e-18
1.93682e-16
0.000480247
2.5702e-16
1.47906e-13
1.45302
-1.21333e-19
-1.26848e-18
1.01171
-8.72225e-06
1.49574e-22
0.466549
0.705463
-1.17869e-19
1.16267e-16
0.00363818
0.00195491
1.81542
-3.34117e-07
-4.26785e-18
-0.000776284
-0.0296112
0.63587
2.49305e-09
0.779754
1.02718e-14
1.53368e-17
-7.05344e-19
-4.05238e-20
-7.75496e-12
9.67899e-07
8.30497e-05
-8.62071e-21
5.06485e-08
1.36314
-5.76276e-21
0.560001
3.36483e-14
-4.38689e-18
7.4258e-08
9.12666e-18
0.000173122
1.12522e-11
1.49428
5.37508e-17
4.97473e-13
5.19638e-17
-1.60769e-21
-2.67241e-24
-4.41744e-15
1.70889
3.43942e-19
7.973e-09
7.0512e-07
2.44476e-19
-1.17417e-11
0.945648
-4.10414e-22
-2.23325e-15
1.6213
1.46316
0.00376879
0.00106165
1.16901e-08
-2.18268e-05
-1.90594e-10
2.46541e-21
0.250673
0.655821
1.59997e-05
1.78606e-14
-0.000446443
0.136384
1.43438
1.01523
0.598685
8.74582e-20
0.032996
-1.79008e-16
3.84656e-06
0.893497
-8.198e-09
1.69404
9.28311e-20
-6.77467e-11
5.08967e-10
-1.98957e-25
0.11933
-5.70933e-23
1.3531
-0.000890481
1.76681
0.00417989
-7.48543e-19
1.93103
1.50069
0.965713
6.38427e-22
0.720255
0.321161
1.56993
0.00105896
0.00153891
1.58673
1.68578
0.228929
1.18855
0.835153
-2.78279e-20
2.91164e-05
1.02048
0.855269
8.15363e-06
0.245758
-2.49302e-14
6.56415e-14
-2.45318e-23
0.559429
-4.81075e-24
0.000725993
1.45325
6.17689e-14
-6.08125e-14
-0.000463906
-2.12689e-05
-0.000123667
0.315471
0.857134
4.49269e-18
0.000966
0.0127201
-5.29709e-10
3.28348e-12
6.95429e-05
0.0680127
1.16441
-1.73082e-05
3.97279e-18
0.600686
0.0805395
0.341514
0.390135
0.256391
1.35263
3.56936e-15
0.00374042
0.777753
1.04319e-06
8.37308e-06
0.121318
0.564853
-1.28447e-21
-1.22562e-12
7.45609e-13
0.299907
0.000263434
-2.63085e-19
1.47699
0.00588316
4.7128e-06
1.02812
-3.35357e-05
0.146506
0.978116
3.30274e-13
-3.71785e-21
0.745292
-1.4049e-17
1.4677
1.57366e-17
1.39651e-06
-1.73758e-25
0.216923
-2.1967e-07
-1.39466e-25
0.000314771
0.789824
1.86357e-18
2.62342e-09
0.0687764
0.197995
0.91323
0.37435
-3.26011e-16
0.861976
0.00080043
-1.214e-15
1.54732
2.17865e-08
0.708434
-2.86377e-24
1.42555e-09
1.01286
2.01394e-07
2.31395e-06
-0.000730656
2.54687e-07
-1.81158e-20
1.27808e-16
0.0145873
0.979236
1.08916
0.0173999
-5.37334e-20
0.000401629
1.39818
1.77984e-16
0.00306422
-4.14328e-23
0.695079
2.16701e-14
0.0920405
0.00549462
0.866894
1.2713
1.52156
-6.0806e-07
-4.87204e-13
0.000487395
0.846027
0.967134
-4.72638e-21
-0.000922597
0.344258
0.0410918
-2.76246e-24
-4.00904e-13
-7.41651e-05
-0.000286462
0.607127
0.000164274
5.15554e-18
-3.42384e-12
1.57039
-4.26211e-09
1.12024
1.01643
5.01277e-07
0.000248567
3.13913e-05
1.48789
3.25059e-06
-1.52452e-07
8.55136e-11
1.85332e-19
0.0364961
7.22917e-09
6.21908e-06
1.67007e-10
1.5193e-12
1.57037
-3.41176e-24
0.883294
-9.79897e-16
1.78405e-07
9.62361e-07
0.000553509
1.47404
1.60058
0.346676
0.00935347
2.81478e-05
2.66214e-05
0.00454074
3.30427e-13
-0.000102963
0.367201
1.06196
-2.96781e-14
1.54491
9.99311e-25
0.336824
0.0598824
9.18086e-16
0.0015205
-6.74119e-05
5.69024e-14
1.98977e-08
1.52941
1.12194
-0.000374011
0.106756
0.00186666
1.59638
2.07942e-08
8.43975e-08
-3.49019e-15
6.36428e-10
0.00141885
0.186021
5.44351e-23
0.000198936
0.910895
-2.71587e-19
0.965776
1.60084
2.84408e-06
6.75347e-07
0.00157034
3.01769e-14
0.287108
2.35118e-09
-0.000750535
1.26497e-05
-1.44305e-15
0.943491
-7.14727e-06
0.955599
0.0789521
2.52542e-07
0.221274
1.77739
4.97215e-16
-0.00285262
0.000587734
-0.000873222
0.000257903
1.4701
1.89343e-06
2.49469e-17
0.00292487