/*--------------------------------*- C++ -*----------------------------------*\
| =========                 |                                                 |
| \\      /  F ield         | OpenFOAM: The Open Source CFD Toolbox           |
|  \\    /   O peration     | Version:  4.1                                   |
|   \\  /    A nd           | Web:      www.OpenFOAM.org                      |
|    \\/     M anipulation  |                                                 |
\*---------------------------------------------------------------------------*/
FoamFile
{
    version     2.0;
    format      ascii;
    class       volScalarField;
    location    "12";
    object      T;
}
// * * * * * * * * * * * * * * * * * * * * * * * * * * * * * * * * * * * * * //

dimensions      [0 0 0 1 0 0 0];

internalField   nonuniform List<scalar> 
26625
(
0.00171564
0.276648
1.4021
1.63303
0.000137296
0.00702499
0.000403065
0.00404484
0.369607
1.62865
1.03083e-09
0.746203
0.000203496
1.33315
1.37459
0.000459363
0.997378
1.48727
1.59826
1.07513
-0.00267697
0.172305
3.7426e-08
0.843598
0.00135979
1.35624
0.571914
0.548008
0.00462352
0.969462
1.54175
0.996322
0.0923973
0.971111
-1.82535e-05
-3.17592e-06
0.102249
1.43174
0.210066
0.668489
0.440039
1.46436
1.45595
1.51918
0.0121627
1.63248
0.176692
1.58666
0.0913203
-1.13734e-08
1.63034
0.996976
0.926802
0.00186871
0.992315
0.250024
0.612009
1.52254
0.0935697
1.48742
-3.66263e-13
0.000132496
-1.02503e-05
0.210561
1.44427
-2.11705e-12
1.0748
1.53987
0.16972
0.289747
1.4301
1.64521e-07
0.304925
3.73844e-05
-1.61297e-09
1.54445
2.98853e-06
4.26774e-12
0.946479
1.63959
0.947409
0.28887
0.789552
1.36919
1.37818
1.55983
8.12002e-07
3.75912e-10
0.238061
0.864251
1.9767
1.4757
0.357596
1.39377
1.07287
0.711802
1.03374
1.21404
1.31665
0.968628
0.647407
1.53879
1.51232
1.40068
0.00517137
1.03835
-1.6539e-10
1.38301
0.973688
0.000425609
1.62674
0.0465175
0.594061
1.38412
1.37086
1.51331
6.42978e-07
1.23562e-07
0.172047
1.46891
1.40171
1.16243
-1.47695e-07
0.186562
0.057201
1.48409
0.907471
-3.75874e-12
1.0912
1.14768
1.42326
1.24501
1.34567
0.000500308
-0.0152002
1.31141
1.15593
-1.20196e-11
0.743136
0.036915
1.21168
1.71309
0.0265545
0.902974
1.59674
1.48918
1.10997
1.57016
0.418492
2.09865e-11
1.45608
1.01709
1.3558
0.479107
-1.97448e-13
1.08754
0.957858
1.48233
0.983524
1.52483
0.794313
1.03984
1.17673
1.2105
9.53207e-08
0.00161658
1.56393
0.885283
0.273794
-9.6293e-08
0.990717
1.83597e-07
0.512068
1.09689
5.27883e-13
1.76745
0.854415
0.508189
1.32223
5.10205e-09
0.295744
0.0942956
-1.88846e-10
1.60098
0.62356
0.857843
0.92515
0.950128
1.62088
0.821466
1.06664
1.0153
1.38438
1.45509
1.42815
0.000515928
0.921669
0.0253912
1.51295
-3.66469e-07
0.119163
1.46747
-2.21453e-07
1.11875
-8.961e-08
1.11448
1.78563
1.4918
0.0306991
0.92185
-1.77199e-09
0.825348
0.000110452
1.02522
0.000550739
1.02656
-0.112959
0.199731
0.845236
1.1013
1.46759
-1.31839e-08
4.75163e-10
0.129383
1.09285
1.46747
9.23817e-07
0.98728
0.948887
0.884472
1.38337
0.84894
1.42756
0.249035
-1.95918e-08
0.573028
1.58528
0.942387
2.49548e-10
0.565389
1.52762
1.33036
1.44644
3.91291e-07
1.06322
0.76746
0.401428
-1.14978e-06
1.19133e-07
1.43709
1.57044
0.525208
-0.000275947
0.881127
0.491825
0.0983813
5.51128e-13
-0.000399349
0.875569
0.673584
6.51706e-05
1.71644
0.70681
0.75055
1.36695
1.56347
-3.79456e-07
-1.51146e-06
0.282941
1.50534
1.57491
1.51683
1.26806
0.92213
0.329907
7.66393e-12
1.07081
1.38968
1.17253
0.173555
0.275064
-2.88196e-09
1.65607
1.01631
0.959146
1.02183e-06
1.44806
4.41076e-05
1.55002
0.10379
7.41297e-10
0.0211658
1.29968
1.48712
1.11976
2.18966e-10
-2.82523e-12
1.12926
3.19201e-09
1.42709
0.860311
-0.000218604
1.46081
0.000462066
0.225797
-1.90649e-12
1.44852e-07
0.013813
5.96692e-10
0.165818
0.15517
-1.40418e-14
7.41588e-12
1.43448
1.2195
0.794915
1.10297
0.278967
1.7263
1.45085
-8.96362e-13
1.25642
0.232086
0.0986758
2.10065e-10
0.874958
0.932922
1.53736
0.287825
0.965179
0.395641
0.000495927
0.889472
1.21318
1.59812
0.0868014
1.04754
0.288866
-1.89739e-12
0.827989
1.64825
0.686323
0.96932
1.07928
0.890188
1.25026
1.0338
1.44322
0.0215628
-0.0645271
1.52246
0.394296
0.984006
1.69454
0.664153
1.10874
1.08812
1.57937
1.19417
1.63239
1.02681
8.48519e-08
0.0886708
0.503512
1.47975
0.880358
1.45324
1.64771
1.0411
0.570679
1.57813
1.40825
1.19617
-2.47869e-09
0.000693172
0.961701
0.831281
-2.80268e-10
7.9141e-11
1.59162
1.01914
1.03026
0.899214
0.22369
0.458208
0.03692
1.00163
0.312765
0.22566
1.27672
-8.71879e-11
0.00204648
0.478219
1.82426
0.128301
1.63385
1.65416
0.728953
0.99128
1.52282
1.19825
1.02872
1.61425
7.51332e-07
-0.000429502
1.1917
1.27255
0.0324211
0.128139
0.843372
1.60612
1.67787
-1.69673e-06
1.00274e-08
0.433956
1.58322
0.339421
1.34313
1.47557
-1.42915e-05
9.03086e-09
3.84171e-06
1.66444
1.07326
0.253128
0.00123551
1.07513
0.0717378
3.74075e-09
0.824973
1.61519
1.61641
0.127666
1.62729e-06
1.43923
1.19842
-1.17326e-09
1.23672
0.226779
1.76174
0.921446
-5.66705e-08
0.56093
0.970496
1.66606
0.151679
4.71285e-12
1.43529
0.493264
1.66237
-0.140656
0.822087
-1.33525e-08
1.10484
0.0443318
0.143446
0.663737
1.44215e-10
0.00898361
1.33871
1.52124
1.5527
0.00576194
1.57312
0.00395729
0.959369
3.47733e-12
1.02753
1.74453
3.92535e-10
-1.63233e-07
1.96061
0.661704
1.29099
0.0164832
-6.2126e-06
0.914555
0.872022
0.939387
1.29022e-08
1.51814
2.32949e-05
1.40883
1.77457e-07
0.296404
0.257301
1.36126
0.859672
1.54855
0.000289261
1.31522
0.974137
0.000218435
1.54425
-6.14551e-08
1.5563
1.4875
1.5592
1.38654
0.00613618
1.54579
1.20291
1.35509
1.54472
1.00813
-1.52373e-08
0.707208
0.961299
1.19693
-0.000102993
1.61544
1.12815
1.37662
1.35876
0.000152717
3.18274e-06
0.811556
0.173087
0.00190428
0.942035
1.00471
1.72536
7.37902e-12
0.453643
0.643832
4.09183e-07
0.927002
1.37879
0.944323
0.000781965
-0.000190026
1.41276
1.7889
0.703224
1.14136
0.995673
1.43308
1.2141
1.54866
0.00224791
0.47305
1.20817
3.02289e-09
1.53559
0.281544
0.866682
0.457435
0.0561661
3.15257e-05
1.96799e-06
1.04677
0.000586841
1.41028
0.352222
0.0744551
-0.144496
1.01765
0.797061
1.70366
1.04629
0.602778
0.301865
1.17149
1.41172
0.333061
1.14055
9.61061e-09
1.03912
1.47097
1.47866e-06
0.0134003
0.00184418
1.73355
2.28518
0.868025
1.45056
3.11809e-11
0.918971
-4.75839e-07
0.518081
-1.51062e-07
1.00879
0.419409
1.80949
0.607335
0.0543844
0.555694
0.0921267
0.861361
0.602122
0.154627
1.35179
0.596531
-9.12755e-10
0.113157
1.3476
0.934181
1.01176
0.951392
0.0335543
1.31071e-06
0.781609
0.954611
1.73888
-2.57821e-07
0.40751
1.61447
1.11255
1.08194
0.1635
1.14651
1.20991
-0.00852988
1.07823
1.40484
0.237437
1.21164
1.29982
-0.000318654
1.20702
1.15565
6.09822e-09
0.568805
1.10561
-0.0241091
1.49625
0.0706309
1.83088
0.732635
-0.153909
-1.39397e-07
0.561607
0.506951
0.0307848
0.320676
-3.13531e-08
0.837294
0.328294
1.04802
1.54632
2.9891e-07
0.000648144
0.963603
0.000191771
0.183425
1.56666
0.165253
0.300675
-9.75586e-05
3.31359e-07
0.952416
0.0232307
1.58014e-07
1.28684
1.5642
1.91027
0.172563
0.699836
1.40896
1.2169
-6.15344e-06
0.651046
1.39129
8.85155e-06
1.03865
-0.178633
1.29432
1.84042
1.74959
-4.88076e-09
0.558547
1.04504
9.05828e-07
1.3147
1.27475e-11
3.51142e-07
1.04053
1.55658
0.272918
-1.124e-05
1.44737
-0.000201539
0.657051
-8.00581e-08
0.0806444
-5.80003e-10
1.56012
0.231955
0.959495
0.531231
-6.37756e-08
6.59394e-13
0.00356525
0.0649847
-3.25282e-07
0.00178343
0.33875
1.1827
0.722056
0.525184
0.321579
1.10521
0.00896724
1.03054
1.3324e-10
1.30762
-2.66861e-05
0.945452
0.82949
0.973818
-2.03763e-11
1.6487
-1.52566e-05
9.87477e-12
-4.54822e-11
-4.95339e-06
-2.38336e-13
1.18627
1.82256
1.33302
0.0117767
1.47379
0.302794
-5.74274e-13
1.54705
1.21319
7.54511e-10
1.66499
0.117936
1.47579
-0.000857281
-0.00520324
0.422678
1.21498
7.92986e-06
1.47941
1.53625
0.603883
1.49422
8.13984e-08
0.854839
0.658113
1.21214
0.802854
0.0483834
1.60459e-10
1.09911
1.57894
1.445
0.952852
1.24019
1.07274
1.50755
3.18246e-05
0.183545
0.36634
0.0128233
0.597137
1.43252
1.59602
5.47741e-05
0.31169
1.41252
0.700184
0.0485998
0.944729
1.10185e-10
-6.98718e-08
1.05456
-2.76501e-07
0.000166212
0.00020734
1.81201
1.82528
-1.79082e-09
1.50869
0.0452836
0.918216
0.000667762
1.94148
1.02528
0.000193706
0.939729
1.32419
1.16398
0.0665683
0.544631
0.632898
-1.19144e-05
0.760778
1.6907
0.255755
1.06151
0.899108
1.41496
1.47815
1.3598
1.38268
0.110209
0.654096
1.36828
0.938097
1.46098
0.0453626
1.04211
1.58217
0.102822
1.26487
2.89338e-11
0.268632
-2.66229e-08
-3.6065e-07
1.72297
0.94872
4.20678e-05
0.448234
9.84422e-07
0.450307
1.1046
0.710567
0.197639
2.57154e-13
3.16753e-10
1.42747
1.6361
-2.17735e-08
1.05943
1.04761
2.05401e-05
0.79085
-0.0907067
0.0910705
1.70305
1.54941
1.13018
7.81614e-06
0.357868
1.75982
1.25338
-2.7254e-06
0.801457
7.48288e-06
0.739562
0.441384
0.911807
0.000326669
1.58753e-05
1.42806
0.207495
6.19267e-08
1.4903
1.17981
1.66441
6.15586e-05
-1.47467e-12
1.86464
0.989791
0.0592167
0.411952
0.385012
1.4321
-0.0147319
-1.38594e-08
0.0163552
0.132804
0.371999
0.767973
1.59816
-1.02632e-08
1.46537
-7.40979e-10
0.954286
0.00230022
-0.000243667
1.51242
0.0377242
1.59156
8.65241e-14
0.997028
0.988292
0.0986352
0.00113725
0.125358
1.49242
0.558093
0.505409
0.455211
1.27758
-7.10501e-10
0.255484
4.40793e-06
0.868536
-2.99445e-09
0.364537
5.39168e-08
0.00155263
0.836541
1.77166
1.34473
0.229438
1.41753
2.18871e-09
5.23034e-07
1.5479
1.57668
0.0293627
0.000963427
-0.0815986
1.15554e-10
1.40261
0.0354814
0.523538
-2.32142e-07
-8.10389e-13
0.811529
0.971263
-3.2773e-09
0.0776537
0.00887066
1.39776
1.03945
0.794406
-6.91359e-12
0.79915
-4.26219e-12
0.985816
0.711257
1.55575
0.753223
0.282114
0.358259
-2.49803e-08
0.436152
1.52837
1.44307
0.124227
4.3872e-07
0.00136538
2.86583e-12
0.899363
1.53832
1.02872
0.702179
0.202351
-2.09179e-07
0.273149
1.36646
0.155361
1.03321
5.86477e-11
1.31515
-1.35612e-09
1.10099
1.36661
0.488458
2.41345e-05
-5.17006e-06
1.59024e-05
1.36265
1.00744
0.848052
0.529233
-0.000124179
1.24455
1.00103
0.980994
0.212632
-1.12729e-06
2.09512e-11
0.993136
0.0150041
1.37604
0.0221834
0.16549
1.22915
0.0280997
0.0151374
0.973958
-3.34637e-10
0.595959
0.96264
1.01746
1.06582
0.00335807
-1.44186e-05
1.37216
-2.89785e-09
-2.59408e-07
0.108028
4.38168e-11
1.1
1.63683
-4.27375e-05
0.535304
0.00100624
0.23733
0.383586
0.0253853
0.0226783
-6.31785e-08
0.272052
1.16475
0.000550366
0.0148122
0.715252
1.04874
1.63033
0.919207
1.0342
0.0294278
-2.66212e-06
0.153444
1.60606
1.46857
-3.86414e-08
0.624187
1.09456
4.32982e-10
0.966743
5.18836e-05
8.88569e-05
1.54195
1.0144
1.79365
0.996414
-1.3207e-05
0.747414
0.990971
1.48964
1.46665
0.519818
0.696634
1.50297
1.00109
-3.47472e-08
0.872939
0.702537
8.26849e-05
0.459718
0.558259
0.000677966
0.99907
1.00625
0.129027
1.84554e-09
0.664542
0.359328
0.89587
0.173005
0.599461
0.638999
0.0534073
-0.000111242
1.64381
1.79121e-11
0.00294696
-1.26322e-08
1.46412
1.48634
1.47473
1.46612
-1.23617e-06
1.56231
4.98427e-08
-2.29289e-09
1.26663
0.431115
0.17869
0.495073
1.53629
1.4761
0.8939
0.900404
1.72732
0.0139648
1.64689
-1.79076e-06
0.87399
1.44905
1.29123
0.0285004
3.19514e-09
1.0226
7.86897e-08
1.50882
1.34618e-11
0.975665
0.788548
0.0414712
1.83739e-08
0.765351
1.41307
0.365838
0.0379291
0.941579
-5.2672e-07
1.03682
1.38443
1.04341
1.49037
1.29866
1.06203
-2.16462e-07
0.0656505
1.42115
1.53378e-09
1.60798
1.46662
0.204826
2.04533e-08
1.6861
1.50452
1.03852
1.39077
1.03219
1.76479
1.49976
9.49172e-06
3.10664e-07
1.4095
1.01703
0.395362
1.30764
-1.44632e-05
1.03819e-08
1.45874e-09
0.000880383
1.51729
1.29325
0.0125281
0.0254241
-1.05677e-09
0.911486
0.0521011
5.88716e-09
1.4616
0.613811
0.185156
1.23594
0.536925
1.1307
2.03221
1.51499
0.994994
0.495548
-0.000107087
1.19479
1.77349
2.94574e-12
0.656157
0.7437
1.49405
1.02543
0.030079
1.79405e-10
-0.0100214
1.70759
1.0491
-0.028118
1.35758
1.82421
1.67
0.95864
1.4415
0.234789
8.26129e-11
1.04734
1.53479
0.375837
1.7115
1.15715
-1.44523e-05
1.6285
0.0519766
0.0391888
0.310083
1.00722
-0.0129498
1.24202
-1.54636e-05
1.64219
-0.0275463
0.000462696
0.785986
1.23427
1.53077
1.48186
0.772947
1.94802
0.355082
7.32722e-11
0.0663089
1.49766
0.741306
0.961553
0.599866
3.6035e-06
1.49235e-11
-8.23864e-05
0.557366
0.846077
0.104774
1.24447e-05
1.12656
0.12655
1.35915
0.00125435
0.691921
1.01596
0.197316
1.5895
1.95543
2.86912e-07
-1.0048e-12
0.0113216
0.492952
0.960639
0.37844
0.924969
1.64225
1.58279
0.771658
1.6221
1.48718
1.61257
3.58651e-06
0.0360803
1.40548
-0.00836232
5.29422e-07
1.31649
0.750088
0.442875
1.71236
0.431041
1.52822
-0.00641189
1.74467
1.58893
1.65585
1.47108
1.17191e-10
-0.104548
1.59591
-2.34111e-11
-0.0262665
0.0237434
1.26299
0.774829
0.0197838
0.790112
0.284853
0.0220307
-5.0214e-13
1.05376
0.457257
1.66684
1.47996
1.4653
0.436127
1.79388
0.296568
0.00107828
-2.1445e-05
1.3706e-13
0.17722
0.5773
0.668991
0.201241
-1.4853e-12
0.994322
-6.53752e-14
1.06862
4.66422e-11
0.387684
0.849458
1.53601
1.47012e-07
-2.93341e-09
0.297271
0.929722
1.01609
1.6877
1.24995
1.50178
-8.28672e-08
-0.0168115
0.844064
1.06076
1.63694
0.00359266
0.952739
0.73141
0.240401
1.31732
-2.95524e-08
1.05276
1.4959
1.69695
0.967997
1.09202
1.57557
0.00349272
1.06674
0.925204
1.50649
-1.25641e-06
1.58829
-8.53369e-07
0.526614
0.789871
0.00119324
1.04169
0.0798621
0.688089
1.62497
0.997702
-0.00540306
0.118874
0.307431
0.259538
-4.03257e-09
0.995172
1.50395
-2.02428e-05
2.12921e-09
5.13309e-08
1.32797
0.978447
0.813547
1.49011
1.09375
1.49188
0.00425685
-2.90718e-12
1.55983
1.56089
0.993389
0.247904
1.14908
1.63973
0.319198
0.740955
0.544742
0.000249545
0.547155
1.3601
0.900534
0.270739
1.68223
0.0655662
-0.207838
-1.20348e-09
1.06088
1.4511
0.615495
0.00179808
0.941139
1.19474
0.602654
0.136829
-2.77092e-08
1.22122
1.52587
1.26616e-06
0.376189
-1.00409e-11
-9.74436e-06
0.0864111
1.39011
1.3511
1.54442
1.58937
2.24098e-11
0.729329
0.968554
4.33855e-06
0.938741
0.0603124
0.392355
1.45264
1.50556
0.735445
0.194767
1.55757
1.45244
5.00422e-05
0.65469
3.77562e-07
1.02963
1.00709
0.314276
0.466479
0.0860149
1.08111
1.41214
1.44096
1.00036
1.39907
1.56598
1.01526
1.67014
-8.0412e-06
1.42557
0.263431
1.90277e-07
0.581925
1.2533
0.671132
1.70477
0.794228
1.45524
0.974599
0.217051
-2.08634e-06
0.710821
1.4201
2.49634e-06
9.21391e-11
1.05032
1.09985
0.231747
0.0271146
0.929613
1.1124
0.429931
0.104496
1.38044
0.387669
0.131746
0.991141
0.984882
1.60753
0.772217
1.50198
1.12142
0.352844
0.0412477
0.504515
-3.20349e-09
1.44692
0.0684851
-2.56327e-08
0.935025
1.29428
1.29849
2.57702e-05
0.981823
1.42868
1.57765
0.140618
2.16736e-07
0.107141
1.10557e-09
0.313034
-0.0362983
1.4614
1.21424
0.149851
0.860232
0.160231
1.63633
-4.02754e-08
0.0153874
0.0959214
0.0806245
0.0427716
0.956986
-1.46968e-09
1.61305
1.11029
-1.28864e-13
0.103677
1.24635
1.64516
0.512003
-6.14686e-05
1.09191
0.642173
5.41454e-10
0.93553
-2.30523e-08
0.0410028
-8.14696e-10
1.35461
-1.66982e-05
1.00614
0.770797
1.60093
0.652554
1.20276
1.29388
-3.62796e-08
-0.010848
0.225958
0.0206489
0.960937
1.10671
0.0640802
-4.34639e-09
0.348936
1.30387
0.92847
-5.31419e-08
0.47482
0.968115
0.778419
0.371208
1.09068
0.0482114
0.514788
0.000184078
1.95627
1.43861e-10
0.770836
0.997119
1.6405
1.52856
1.34573
6.96414e-10
1.45132
-2.34744e-07
0.00379421
1.51987
0.597048
-3.33363e-08
0.423109
1.11944
0.171084
0.529476
1.44747
0.0266743
0.257992
1.51909
0.533149
0.000177742
1.13552e-10
-2.21675e-06
0.790305
1.18378
0.994529
0.856385
1.19486
0.000683431
2.96555e-07
0.206062
0.018076
1.41684
-1.42256e-08
0.687456
0.4067
1.27766
0.444575
2.25666e-07
1.23512
1.21998
1.32374
1.88753e-09
0.021515
0.98399
1.63372
2.51211e-09
1.51862
1.58589
8.07031e-09
0.000426583
-8.29401e-07
0.760693
0.219396
0.319458
1.35544
1.55894
1.24818
0.407551
0.757357
0.658652
0.766983
0.82478
0.00598579
1.41026
1.37237
0.883841
1.02334
1.47201
1.22558
0.586524
0.208358
-0.0138521
1.62946
2.82991e-05
0.111105
1.25922
1.09615
-0.000104142
0.398304
0.742244
-0.00489094
1.03783
0.922866
-1.26449e-08
1.28707
1.32401
-1.03277e-06
1.33718
-1.17841e-10
1.27702
0.03335
1.65716
1.88506e-11
0.551809
1.33805
0.434561
0.373728
4.04994e-07
0.211808
1.64131
0.665357
1.52847
-2.03479e-08
0.000307932
1.38196
-2.01863e-07
1.48766
0.901069
-9.79528e-06
3.33088e-11
1.91709
1.48396
1.00407
0.671873
-1.75969e-07
2.46474e-08
-6.7027e-05
-2.87774e-12
0.032265
1.09101
1.0708
0.0326855
0.0291209
1.44587
-1.74543e-06
0.297496
-8.10929e-09
0.0133298
1.6776
9.46062e-08
1.45597
1.07735
0.966411
0.71657
-6.15277e-06
-2.21664e-06
0.146959
2.43484e-08
0.0838041
1.14701
0.535333
0.730165
0.754515
1.6368
0.136387
0.115652
1.54642
0.493595
0.186255
1.52778
-1.02038e-12
0.0440245
0.965308
1.47452
0.752714
-4.22922e-07
1.02454
0.432283
4.15226e-06
1.02787
1.06473e-06
0.372779
1.00282
-3.62997e-08
1.51584e-09
1.44636
0.205158
0.900035
2.46912e-07
0.960189
1.1263
1.05706
0.00120078
6.96341e-06
0.519184
0.970683
0.227792
-2.07115e-14
0.544524
0.649217
0.986162
1.0053
-2.1279e-12
0.40252
1.31592
-1.83609e-06
0.509565
-7.64395e-10
1.2836
-5.80242e-13
4.63424e-11
4.96824e-13
-0.0709166
1.35032
1.37729
0.347659
9.53825e-13
-3.06078e-09
-5.07679e-12
0.168691
-6.38886e-07
1.31808
1.77658
0.993392
0.000151895
0.000128598
0.0941103
0.943867
1.52194
0.874613
1.38565
1.14841
3.63569e-09
0.988037
0.623028
8.59715e-09
-5.37715e-05
0.0525599
2.37326
1.79095
0.000121698
0.620487
1.44219
2.10784
1.55731
1.07517
1.32421e-07
0.68057
-2.18802e-06
1.37854
-1.48798e-06
2.34848e-12
1.31397e-05
0.0363622
0.993467
7.55661e-08
1.01673
4.89391e-10
1.44382
0.594072
1.1963
0.00102921
0.925176
1.07305
1.45959e-05
1.40499
1.01677
0.00416019
0.620327
7.86395e-07
1.39941
1.42904
0.822717
0.361153
0.347942
1.61875
0.000266262
0.969601
1.68476e-09
-4.2042e-12
0.991945
0.958765
3.26561
0.762705
1.20352
0.0966156
0.799867
0.874359
6.97999e-06
0.000125897
0.306377
0.00381482
3.92888e-08
1.66201
1.06932
1.54072
1.72208
1.60832
0.937463
0.809195
0.221208
1.65806
0.822803
0.197564
0.985646
0.143932
0.126824
0.722851
1.15653
0.328052
1.12382
9.34787e-06
1.25126e-05
0.446454
1.13094
1.16285
2.3402
1.0203
-9.44779e-05
0.745688
1.0143
0.144312
1.43605
1.55552
1.65319
1.35479
6.703e-08
0.367873
0.000161464
0.978558
1.07509
0.995763
-3.53533e-09
0.990708
1.57036
3.38204e-10
3.7857e-10
0.0277976
-1.89065e-05
0.000665604
0.2621
0.0808194
1.61256
0.8773
-8.05301e-07
1.55468
1.53868
1.37603
1.20638
1.35987
4.57599e-09
2.37645e-05
1.00455
0.0830747
1.89282
1.77354
0.839004
-8.9367e-05
1.13964
0.473361
0.470614
1.06777
0.00583154
0.481254
1.02922
-9.29296e-06
8.57112e-07
1.03801
0.0151699
1.03874
1.48506
1.22749
0.287814
0.892961
0.716837
1.26052
1.56865
0.0579392
-1.01645e-08
1.02623
0.00181892
0.832925
0.903287
0.316186
1.25765
1.50574
0.00184271
1.3156
0.292522
0.772697
-6.09616e-05
0.146982
0.100501
1.09676
-1.2539e-05
2.3641
1.51032
0.948929
1.69207e-12
0.995067
0.0780001
1.04341
0.412307
1.72191
1.59213
6.23078e-12
0.229038
0.659958
1.52535
-7.22367e-07
1.7195
1.36521
2.06189e-09
1.21513
-6.94645e-11
0.0562645
1.09456
0.654937
1.13513
1.04846
-2.00313e-08
0.134337
0.788561
0.0568868
0.0203518
1.5148
1.32022
0.722713
3.01899e-07
1.44954
1.82429
-3.20221e-10
-8.35953e-11
2.06096
0.0525891
-9.96883e-14
0.501928
0.128231
1.00775
0.264083
2.24361e-08
1.00392
1.06372
1.65589
4.13927e-09
1.76288
1.6527
5.47793e-05
5.34931e-05
1.67613
0.231651
0.000176378
1.78188
4.41534e-08
1.42803
0.673116
0.0244844
1.36241
1.23284
1.31027
0.733829
0.328714
0.149111
1.15021
0.977607
0.199988
0.0766069
0.0236631
1.97383
7.70782e-08
1.48753
-6.64836e-06
0.619185
3.17525e-07
1.79066
0.890403
1.63163
1.32359
0.255806
1.02385
0.886452
0.00287105
0.00256831
0.763112
0.00792349
0.581158
0.218237
0.786665
-8.90533e-11
1.43278e-08
0.365036
0.103293
-2.35428e-12
1.17068e-08
0.471168
-0.0337118
1.0115
4.61901e-08
1.6734
1.13732
1.48794
0.688922
1.49769
1.47588
1.47955
-2.49383e-09
0.000183253
0.186099
1.35601
0.444936
0.625943
7.40387e-06
0.986741
1.6573e-07
0.00118286
3.58644e-11
0.153898
1.03947
2.06273
1.51878
0.518668
9.37763e-11
0.557249
1.20004
1.54335
0.655278
1.51372
0.987767
0.611315
1.78664
1.4744
1.07079
1.15384
0.94116
1.0121
0.876318
1.6644
1.6074
0.877877
0.161735
-3.17337e-07
1.0821
1.0296
-3.66682e-05
1.62074
1.59176
1.08249
1.02074
6.22464e-06
8.04442e-10
1.36788
0.831741
0.77498
0.943542
1.55332
1.5094
0.412008
0.961074
0.00126875
0.802874
0.972524
1.69839e-09
1.62854
0.588073
1.29645
1.58608
0.290099
0.181522
0.0423363
1.55129
1.27911
0.715914
0.965806
-1.97231e-11
-1.02569e-05
1.25883
0.00120749
0.478055
1.2085
1.26745
4.74114e-09
-1.76933e-05
-0.0221163
1.17757
0.111571
-0.00481032
1.47043
0.0829083
0.502615
0.0193383
0.757608
0.789441
0.605516
1.46924e-06
1.17078
1.40513
1.39149
0.0235554
0.000356779
0.556156
0.700223
0.173844
-8.63519e-06
-9.56371e-10
0.336905
0.615265
1.40157
6.07639e-06
3.69976e-11
0.000237884
0.27598
1.11575
0.846291
0.106062
9.86559e-08
1.0039e-06
0.551752
0.660916
1.62087
0.269219
1.50388
0.374453
0.395131
0.000749854
0.290058
-7.19129e-09
0.271598
0.00213241
0.522514
1.62735
0.984139
0.000231216
-5.08466e-07
0.969666
0.000641775
0.700856
1.01375
-2.98841e-06
1.04372
0.962798
0.116546
1.44013
0.439784
0.000288837
0.797905
6.51908e-05
0.000762039
1.22301
3.16686e-05
1.44193
1.40445e-06
1.17564
-0.000392489
1.48887
0.318234
0.554903
-1.79227e-07
0.699391
5.76373e-05
1.02656
1.46532
0.0439864
0.00044177
0.742292
0.000121197
1.39458
1.13061
1.62133
0.805455
0.99531
1.53396
3.31908e-06
1.6935
0.240495
2.02954
1.02504
6.87227e-05
-2.10776e-05
1.71195
4.91857e-10
2.80551e-08
0.596026
0.000489576
0.0944334
1.37584
1.55405
1.69979
-3.77983e-10
-6.67027e-05
0.207892
0.986459
-1.24333e-06
2.22945e-07
1.58858
1.25228
0.637575
0.0871624
1.14182
-1.07964e-09
-1.68778e-10
0.0167179
1.4624
2.27145e-09
0.943642
1.58691
0.328075
0.114599
1.53091
1.50388
0.995518
0.674317
4.89394e-05
2.02731e-06
0.537757
0.0192622
9.43016e-07
1.25701
-3.34205e-05
1.25469
1.66682
0.0706714
1.16038
1.64643
7.03649e-12
0.0182571
1.28162
-0.000178813
1.40691
0.40398
0.0135372
0.00418834
0.595229
2.13661e-11
1.66825
1.52195
0.000146049
0.32138
1.56239
1.56543
1.00367
0.53227
0.426025
0.0698951
0.210989
0.01918
1.4572
1.38337e-09
0.112383
0.9895
0.141794
0.464322
2.12104
1.29492
0.391579
6.22256e-08
0.943637
4.95329e-07
-1.12789e-10
-9.96332e-06
0.340366
0.159071
6.11992e-11
-4.2095e-12
0.000811482
0.410853
0.000435118
0.00974377
1.49229
1.05831
-1.43979e-12
0.808741
1.76566
-1.8242e-13
0.0395342
0.082267
0.362112
1.22832
0.70593
1.52055
3.08369
0.336058
1.25406
0.0347425
0.98919
0.0199185
1.04618
0.0402138
5.00331e-05
0.926991
0.12803
0.253482
1.51208
0.476585
1.05846
0.958745
1.04138
1.22689
1.22731
0.0831019
0.733283
0.951633
2.87642e-10
0.44399
-2.67631e-09
0.0571126
1.44326
0.106937
0.9667
1.46492e-08
0.00142482
0.000286415
6.99926e-08
-0.00017074
2.35437e-05
1.70246
0.57601
-0.0817542
0.924463
0.95622
-3.89831e-05
0.343038
0.354389
1.40175
1.42449
1.62915
0.677614
1.21647
0.709592
1.04057
1.59267
1.51865
1.86371
0.225202
1.40795
1.3127
-5.26059e-11
1.43675
0.974429
5.46367e-08
0.0350996
1.01365
0.417413
0.130825
4.59656e-06
1.05823
4.25531e-09
-6.11483e-06
-2.73015e-10
0.613334
0.962126
2.78836e-06
0.949603
0.0338003
1.60103
1.22729
0.49084
1.55442
1.5344
1.47732
1.24765
3.827e-09
0.224448
0.171705
0.375335
1.07579
-7.9517e-10
0.407688
-0.00042386
0.587371
1.02943
0.500129
0.859885
-1.01554e-05
-2.97531e-11
0.617435
0.500268
-4.83872e-08
0.0190051
0.61993
1.38555
1.50671
6.4668e-12
0.953021
1.55038
0.00170829
0.0335658
1.3093
0.321286
0.124556
1.07102e-07
-5.30704e-12
7.50109e-07
-2.23112e-08
-8.862e-07
0.914566
0.000656052
1.88631e-05
1.45318
2.63875e-10
-3.84499e-08
1.02988
0.519903
2.21982e-11
0.872495
0.939189
-9.59606e-10
-3.66969e-07
0.336287
1.62067
1.87604
0.0174046
2.36881e-08
1.00752
0.261931
0.912414
0.0211508
1.24859
-1.13593e-05
-3.02589e-07
8.95164e-10
2.39692e-09
1.49126e-05
0.0946403
1.11462
-4.32082e-10
0.187326
1.36332
2.16032e-09
1.21629
8.86562e-05
-2.90881e-08
0.108818
-1.82491e-07
1.06965
6.82495e-05
1.46374
1.71302e-07
0.000434681
2.17111e-06
5.59371e-11
-3.38817e-12
-9.89179e-06
1.68283
2.58181e-08
0.0756946
0.0955029
7.66662e-09
0.00468085
0.976175
-1.61313e-11
0.000501249
1.62164
1.44572
0.84821
0.442261
0.173357
0.55649
0.0420919
2.29713e-11
1.75905
0.966865
1.30518
0.000111221
0.850278
1.10165
1.43715
1.01772
0.904572
1.25235e-08
0.525957
-1.17624e-07
0.361645
0.941786
0.0286697
1.70686
-6.72559e-09
-0.00058042
0.0362173
1.81485e-13
0.969167
7.47871e-10
1.35325
-0.0805304
1.78764
1.55017
-3.81353e-09
1.99678
1.48968
0.960671
-9.95674e-11
0.873957
1.0489
1.57319
1.12239
1.39688
1.59167
1.69308
1.73173
1.18521
1.48881
-6.13234e-09
1.00412
1.01971
1.00502
0.386116
0.58835
9.68309e-06
1.70851e-05
3.71151e-10
1.0272
5.76236e-11
0.84474
1.45376
0.00211299
0.000232438
0.258805
0.406805
-0.100028
1.42092
0.857145
6.11077e-09
1.04819
1.18914
-0.00111479
0.000519313
1.21769
1.26413
1.16438
0.0126216
-2.38168e-08
1.04696
1.02731
1.8322
0.989951
0.914419
1.3656
2.99279e-05
0.993412
0.770147
0.298656
0.0107493
0.959405
1.34989
-3.58068e-10
6.10217e-05
0.00273494
0.800941
1.66539
-3.04965e-07
1.48154
1.79681
0.227143
1.03327
0.294455
0.703977
1.00251
-3.7522e-05
-1.60477e-09
1.50735
5.68496e-08
1.43669
-2.36942e-07
0.47964
5.9401e-14
1.45245
0.0851287
-1.40052e-14
1.35283
0.931537
3.82474e-09
0.0312554
1.06954
1.34783
0.915666
1.08731
1.68555e-07
0.862009
0.840596
0.0003754
1.54117
0.177507
1.13414
1.156e-13
0.0867019
0.994304
0.17444
0.589912
-0.0246266
0.266502
-1.11557e-08
-6.27404e-06
0.95713
0.979427
1.3694
1.56812
-3.61553e-08
0.977829
1.39881
-2.17077e-06
0.279134
1.18711e-10
0.717022
7.4732e-05
1.02926
1.38156
0.947301
1.26902
1.54819
0.200217
-2.79816e-05
1.20579
0.903169
1.00694
3.87776e-09
0.948295
1.06386
1.37035
1.6563e-12
-2.2723e-05
0.190544
0.162519
0.946889
0.676909
-8.19975e-09
0.00149871
1.57028
0.0143451
1.11298
1.03921
0.551926
1.40589
0.11244
1.4863
0.693344
0.00275677
0.000553528
-4.59493e-09
0.878234
0.158432
0.726886
0.00101937
-9.50609e-06
1.49784
-1.74373e-12
1.41118
7.29331e-08
0.0987793
0.368678
1.27625
1.47404
1.52317
1.32675
1.28253
1.31132
0.887717
0.97374
3.30768e-05
-0.103629
1.27404
1.07259
0.000202314
1.54512
-8.52221e-13
1.01656
0.916467
2.27625e-06
1.41976
-0.105247
8.31805e-06
0.169294
1.52942
1.07533
-0.129354
0.887102
1.69478
1.60118
0.0148923
0.0462398
5.30015e-07
0.0284873
1.15362
1.59028
1.41808e-10
1.22176
0.908274
-9.24214e-08
0.980218
1.59579
0.427697
0.479383
1.04623
5.61798e-06
0.90555
0.0399809
-0.102156
0.658657
-3.41934e-06
1.72034
0.475604
1.5999
1.50622
0.090283
1.52215
1.76293
-1.17541e-07
-0.132082
1.1234
0.933463
1.30947
1.4703
0.690861
3.0062e-06
0.988512
7.88315e-13
0.996257
1.68116
0.769819
0.029051
0.0876203
0.0287904
-8.51309e-10
0.0457914
1.43717
6.489e-12
0.519413
-2.06606e-09
-1.24977e-07
1.80793
-2.7896e-07
1.55448
0.109419
0.416636
0.322466
0.428552
1.39268
1.04469
0.661934
1.02559
0.000469487
1.1297
-1.67922e-08
-0.00104636
4.37511e-08
0.941389
0.0298449
0.0142189
1.21164e-11
0.0250298
1.27839e-09
1.07958
0.116586
-1.613e-09
1.08779
8.18284e-10
1.32576
0.628338
1.4384
0.543516
3.53409e-09
0.593074
1.36154
0.0427761
1.45826
0.00125256
0.000510232
0.473713
0.129658
0.523047
1.30504
-2.18345e-05
0.0814514
1.06584
6.0685e-06
0.0111541
0.557278
1.58179
0.994459
1.30505
0.0504275
1.1165
0.905025
0.871616
1.43343
0.44188
7.9162e-05
1.01854
1.5441
-1.4932e-08
0.746086
0.324483
0.960614
1.41096
0.725523
0.722216
0.86462
1.12019
1.71081
0.761469
1.12804
0.360981
0.224609
1.67984
0.0401067
1.53067
0.0591223
0.0473686
-1.45532e-06
0.616104
0.279761
1.35914
0.484264
0.136874
0.0103712
0.0139709
0.993494
0.64771
-1.70382e-07
0.138633
1.80161e-09
-0.0259817
0.564786
5.44245e-05
0.836089
1.00802
0.263677
1.18067e-11
1.39806
0.903723
1.60533
1.22705
0.114743
1.05392
0.691099
1.52593
1.15128
1.24058
0.00176187
0.803178
0.97148
1.52584
0.571506
1.78023
0.000124776
0.448847
0.32848
1.50823
7.93705e-10
0.228788
0.722931
0.648371
1.6565
0.292762
1.37248
1.14516
1.51944
1.21037
1.46242
1.37684
1.61683
1.64499
1.21888
1.09879
0.470536
1.43562
0.908711
0.0444866
1.48277
0.115446
0.971028
-5.71915e-08
0.226093
1.29801e-05
1.39877
0.800891
0.247675
0.348331
0.975897
0.481184
1.8338
1.88689
0.235134
2.62014
-3.65411e-07
-1.02217e-07
1.36542
0.529891
0.0161822
0.316887
0.99766
1.27935e-06
1.29406
0.448606
1.18334e-06
1.17127e-11
1.1017
0.752016
1.09828
0.351903
1.40091
0.904056
0.941945
0.897507
0.916549
-2.24555e-10
1.41322
0.979603
0.722346
0.181912
0.724982
0.134773
1.15397
0.0374052
-5.10888e-15
0.137452
0.965434
5.33502e-11
-5.37027e-09
1.53901
1.08965
0.917062
0.00246873
1.08836
0.919187
-5.84666e-06
0.736359
0.174121
-5.18111e-10
2.99381e-07
1.29569
0.0407867
0.0477311
0.871662
1.04104
0.931804
1.56793
1.99392e-09
-1.12458e-09
-3.54616e-05
0.485168
1.01034
0.114864
0.00567993
1.0352
-2.00689e-05
0.000510182
0.288242
0.0502198
-0.00439526
0.79159
-0.00760235
0.705294
1.5676
0.0182147
0.582459
0.973788
4.48066e-07
0.906966
0.636411
1.09251
0.160744
0.00430391
1.08719
-0.000545605
1.66473
1.54371
0.0791163
1.67973
0.00737574
1.55845
0.689604
0.649557
1.05572
0.548585
0.470566
0.852602
1.40134
-9.79863e-06
1.10864e-09
0.10966
-8.20257e-12
0.146616
-1.87515e-09
1.1525
0.551703
1.48407
0.000121243
1.09801
1.3063e-07
0.000224483
4.88364e-05
0.00359192
0.00203478
1.17811
0.386097
-9.19047e-07
2.03262
-3.81322e-06
0.000490982
0.277072
0.816535
8.24602e-05
1.39982
1.49409
0.93267
-7.35179e-11
1.14293
1.54503
1.83378e-07
0.16721
0.280787
1.42644
1.46405
0.0915924
0.0161615
0.00178844
1.00371
0.568812
1.05634
1.56404
0.969984
1.34867
0.159262
1.20678
1.46803
0.364149
0.0125551
0.118659
0.694698
0.000158798
1.47955
0.466634
1.14398
1.10614
0.311309
2.12554
0.874319
0.00926316
1.01809
0.0867813
-3.37619e-08
0.0690735
1.53118
1.68975
1.79845
0.0775441
0.0358629
0.861157
0.0130752
0.0299886
-0.000148537
0.154293
0.384284
-1.4391e-05
1.10409
1.52849
0.26095
1.58862
0.812991
0.962315
0.0776796
0.0322933
0.669873
1.72538
-6.32935e-10
0.933657
0.887795
2.0608e-06
2.44249e-05
0.000272202
-5.72246e-12
0.000377957
0.16064
-0.0105173
0.979274
-2.34121e-12