/*--------------------------------*- C++ -*----------------------------------*\
| =========                 |                                                 |
| \\      /  F ield         | OpenFOAM: The Open Source CFD Toolbox           |
|  \\    /   O peration     | Version:  4.1                                   |
|   \\  /    A nd           | Web:      www.OpenFOAM.org                      |
|    \\/     M anipulation  |                                                 |
\*---------------------------------------------------------------------------*/
FoamFile
{
    version     2.0;
    format      ascii;
    class       volScalarField;
    location    "4";
    object      T;
}
// * * * * * * * * * * * * * * * * * * * * * * * * * * * * * * * * * * * * * //

dimensions      [0 0 0 1 0 0 0];

internalField   nonuniform List<scalar> 
26625
(
-5.25881e-18
-6.62982e-07
1.40226
0.000161769
2.17166e-20
-4.59067e-17
-6.9087e-08
4.07742e-17
4.50655e-06
0.00240456
5.30906e-26
-4.90237e-05
-1.13476e-17
1.51963e-08
1.37354
-7.29005e-18
3.45362e-10
0.383874
1.60209
-0.000664533
-6.70845e-14
4.9934e-13
-6.89484e-26
3.77865e-09
-7.00086e-16
0.117227
3.99749e-05
5.6544e-11
-7.85249e-18
5.59889e-07
1.5429
0.308778
-0.0481601
0.970548
2.25596e-20
1.24375e-21
5.01976e-11
1.21405
4.57865e-08
6.15178e-11
2.83565e-10
0.251827
1.89149e-08
1.43339e-06
-2.62582e-16
3.38546e-05
1.4323e-10
1.61846
5.86876e-11
-7.98571e-24
0.000171812
0.995962
-0.000238648
1.23643e-15
0.990511
5.58081e-07
4.88265e-05
0.000200659
5.0555e-13
1.48933
-2.55767e-31
-6.15045e-19
-5.23083e-16
1.51929e-07
0.303996
-3.9369e-28
0.000229741
1.39096
-0.000369792
-9.12092e-07
1.43052
-3.02492e-21
-2.12254e-06
1.44145e-18
-2.00178e-26
6.31845e-07
3.2618e-23
1.78605e-29
0.137003
0.570737
0.947491
1.56808e-09
6.50631e-06
0.000575006
8.85656e-08
0.334381
-4.60191e-21
7.46803e-29
8.36621e-12
-4.59173e-05
1.49463
1.44461
7.60962e-06
2.02795e-07
-0.000857038
-0.000170731
0.600324
1.20471
5.15322e-07
0.291096
0.597746
0.266189
1.49316
0.653224
-2.55871e-16
0.966341
-1.45783e-27
1.39446
0.545582
-1.06488e-16
0.000117369
6.7674e-12
5.99855e-06
1.38406
0.15187
1.51296
2.86036e-24
-7.83323e-22
1.15573e-10
1.46935
1.57735
0.861091
2.19008e-22
9.01202e-13
-3.22672e-13
0.851414
0.272543
5.36606e-31
0.00011055
0.112803
1.43253
0.000650736
2.32137e-07
-6.27286e-16
-4.98397e-14
1.045e-06
4.42241e-08
-1.14971e-28
0.000166986
-8.08521e-13
0.27502
0.00145688
-4.85786e-13
2.03956e-07
1.59765
0.000123252
0.251044
1.45242
9.42634e-10
-1.2118e-29
4.66278e-05
0.105131
0.0102625
4.63768e-09
-8.95204e-31
0.000228666
0.094557
0.00755276
0.4469
1.01766
1.48702e-10
1.04379
-0.00153912
0.569865
8.05509e-26
-4.77298e-15
1.53975
0.674891
3.70837e-12
5.85743e-24
-0.000137251
3.07295e-25
3.8427e-08
8.20013e-06
2.42834e-30
0.00280821
0.846397
1.61848e-08
1.04858
3.48668e-25
-3.07802e-10
-2.66666e-11
1.65341e-24
0.000153356
9.17768e-08
0.774826
-9.00967e-08
0.333159
1.61269
0.357703
-0.000115583
0.00233319
0.000115021
0.198599
7.95023e-06
1.80369e-19
0.0161663
-3.06562e-13
0.433225
6.26463e-22
8.34792e-12
1.41653
3.57988e-23
1.60557e-09
-1.50274e-24
-0.000333633
0.0360808
1.49299
9.34115e-13
-0.000441886
7.93832e-25
0.0298742
3.70979e-18
0.995528
-1.32451e-15
-0.00346606
-4.96899e-06
3.66436e-11
4.78556e-10
0.675706
1.46748
6.83059e-25
6.36494e-27
5.41534e-11
6.93196e-10
1.1189
6.73679e-21
0.0736489
1.22528e-09
-2.55744e-06
1.35737
5.60159e-10
1.41199
1.64483e-08
7.17656e-25
1.13258e-09
0.000208146
4.40066e-09
-3.29443e-25
0.557296
1.35349e-05
0.000148125
0.000869714
1.14336e-24
1.05014
1.20405e-07
6.84186e-13
4.8436e-22
-4.19951e-26
5.71327e-05
1.57604
1.31776e-11
-3.82152e-10
-0.000555125
1.43991e-11
4.51686e-11
-9.47906e-29
-1.57093e-13
-4.57846e-08
0.658649
-1.8311e-17
1.08817
5.70362e-05
2.78443e-08
1.36699
0.00180449
5.59762e-23
1.59851e-19
1.31507e-10
0.00145006
9.70915e-09
1.18557
1.27735
1.30561e-09
0.272274
-3.51722e-28
-0.000122691
9.55443e-05
3.67303e-05
-1.52706e-09
8.60164e-13
8.02796e-26
5.61236e-05
0.00690358
0.0003113
5.9356e-24
0.000507036
-2.01571e-18
0.562074
1.37058e-11
-9.19851e-26
4.92631e-14
0.7599
5.6928e-07
5.38796e-06
-1.24038e-29
-2.47654e-30
0.000451891
-7.46911e-23
1.43147
0.180274
-3.24483e-14
1.46223
-1.7007e-18
2.3358e-05
1.82497e-31
-6.16848e-22
1.67065e-15
3.18696e-25
6.57195e-13
-3.61638e-11
1.07626e-32
-2.46948e-28
0.000172621
2.54705e-05
-5.64629e-06
-1.4112e-06
-1.29063e-10
0.0029138
-6.94936e-07
-9.46967e-31
4.88828e-08
1.29729e-11
5.61639e-12
-1.78212e-29
-3.06293e-07
0.000608215
1.26471
-2.24696e-07
1.94007e-09
-0.000109598
-1.59804e-15
0.804518
1.20983
6.19845e-05
1.10135e-11
0.000310847
4.34899e-11
1.82078e-31
0.711059
1.40688
0.381896
0.427631
3.19769e-09
-0.000415393
0.000451374
-0.00107549
5.20445e-07
6.77243e-12
4.13636e-10
1.52111
3.26369e-10
1.09861e-09
1.69277
1.77528e-08
0.000182575
2.49939e-06
0.974893
1.16534
1.47807
0.00837626
-1.21413e-23
-8.02807e-05
4.12937e-11
1.28892
-5.25647e-07
1.32965e-07
0.530666
0.708395
9.20812e-08
1.43847
1.41067
-2.71809e-07
-3.13437e-24
-1.71002e-16
0.255974
-6.14305e-08
3.69182e-27
5.26169e-29
0.00151841
0.228356
-0.00199668
1.67942e-05
0.00121433
1.40831e-05
-0.00117135
0.762733
4.39351e-08
1.76667e-10
8.06261e-10
-6.33145e-28
-8.3349e-15
7.88607e-10
0.000707143
5.11243e-09
0.00264457
0.00146452
9.62535e-10
0.0305442
3.35362e-05
-0.000112887
0.843398
0.00027271
1.0301e-23
4.08604e-17
4.44176e-09
0.937705
-4.61434e-13
-1.78618e-09
0.161402
0.000109046
0.138702
-6.70725e-19
-2.15945e-23
2.60519e-08
0.000262251
-0.0189809
0.000214563
0.000757927
1.48165e-20
-2.85541e-26
1.18138e-19
0.423843
0.777261
-1.07678e-10
7.44686e-15
0.850817
-6.81746e-06
3.3251e-24
-1.88406e-05
0.00426072
4.51257e-05
9.20811e-09
1.10958e-23
0.00165191
0.000816969
2.91011e-26
2.06916e-08
-1.00893e-13
0.000856386
-2.83114e-06
-1.28893e-22
3.68655e-05
-4.50557e-05
0.000169083
2.79822e-13
-1.19401e-33
0.000382618
2.67051e-11
0.000226144
-6.87599e-05
0.874191
4.33563e-24
0.21912
1.54193e-12
8.33251e-13
1.34781e-07
6.34512e-26
-3.19159e-17
1.34023
2.1279e-05
1.59183
6.14042e-16
3.6107e-05
3.89716e-10
-0.000466722
4.32459e-32
-2.32057e-06
2.58101e-06
-3.28109e-29
-5.16137e-22
0.0419434
1.84197e-09
-2.43798e-06
-9.65377e-10
-1.18617e-20
0.0517655
-3.27631e-06
-0.00719169
-6.2029e-25
0.0594554
-2.3601e-18
1.42031
1.39559e-25
7.13467e-12
2.31003e-12
6.12012e-07
0.000125136
1.38954e-06
-3.87122e-17
0.00425203
0.0637961
-1.74543e-17
0.000282983
-1.65402e-24
1.52757
0.0541225
0.0393735
8.25518e-06
-1.29086e-17
1.56372
1.19961
0.573277
4.30556e-06
0.0642644
-7.47944e-26
3.76628e-08
0.996442
0.000202838
5.65215e-16
1.53939e-06
0.799914
0.110002
0.810114
-6.984e-18
3.0158e-23
-2.66692e-07
8.47422e-14
-5.40231e-15
0.272805
0.212869
0.398017
-6.09973e-28
-3.01563e-09
-6.68939e-08
1.31551e-24
0.152565
5.18008e-06
-8.48975e-07
2.88327e-15
3.55675e-16
1.41294
0.00226713
-3.21077e-07
0.00629199
0.0313952
0.00209008
3.70414e-06
7.35672e-05
-3.59552e-17
2.32923e-08
0.452221
-6.31518e-24
1.5357
4.96405e-08
1.27636e-06
1.52573e-12
1.53535e-11
5.31869e-18
-1.04521e-18
0.393427
3.67247e-16
0.405544
4.34898e-10
-2.20671e-07
-4.01232e-06
0.000629517
-1.29378e-05
0.00301841
0.690817
4.53112e-09
2.17463e-10
1.01418
1.41032
-6.72197e-10
1.08927
3.15016e-25
9.14826e-05
0.545848
9.46802e-24
-4.3377e-15
1.07097e-17
0.00317707
6.96742e-06
0.0403779
1.45061
1.81336e-28
0.87778
6.65371e-21
2.72572e-11
-6.22714e-22
1.0436
6.68672e-11
0.000104189
4.12927e-08
-2.41522e-12
-0.000359814
7.08434e-12
0.00732707
1.52256e-10
1.52088e-08
0.00236444
5.84456e-11
1.05331e-25
1.2094e-13
1.30137
0.696681
-0.000261966
-6.94344e-05
2.77757e-11
-1.58824e-20
2.18385e-06
0.950824
5.37598e-06
-9.03877e-23
5.67373e-06
1.58551
4.62737e-09
0.385043
-2.30291e-10
1.02014
1.06877
-2.14608e-13
0.287669
0.000224684
-0.0008313
1.49184e-05
1.3094
1.28713e-15
0.966965
2.14053e-05
-2.01324e-21
9.52753e-08
0.00020474
-2.25059e-05
1.49673
7.45003e-13
1.83103
-0.000752347
-2.04733e-05
1.03018e-23
-1.13182e-07
7.90255e-06
-1.94053e-12
-2.34775e-11
1.5432e-22
2.50525e-09
-0.000798924
7.29088e-07
2.34167e-05
7.43895e-25
1.70677e-16
0.636977
4.1867e-16
0.000128001
0.00268752
3.89477e-11
4.30531e-08
-2.12786e-16
-3.55439e-24
0.195406
1.05262e-13
1.00038e-21
1.0713
1.24384
0.000213972
2.12794e-11
9.64557e-08
0.890255
0.0127297
-6.60105e-20
2.10871e-11
1.14897
-3.14683e-18
0.0657874
3.02004e-06
0.00691195
1.66794
8.17106e-06
-3.13123e-23
5.73481e-07
0.000738924
5.03605e-21
1.12334
1.53085e-29
-1.72806e-20
-0.00306779
1.21494
1.42017e-10
7.32445e-20
0.00267573
-2.21287e-15
1.11906e-06
8.24739e-22
9.68973e-12
-2.60053e-27
1.54824
-2.69407e-13
-0.000234196
6.04456e-08
-9.27081e-24
-1.47799e-30
6.46597e-16
2.14855e-11
-5.38133e-23
-1.00478e-15
1.73775e-11
1.18401
2.94505e-10
2.76567e-05
4.76413e-10
2.55396e-07
1.23402e-14
6.77045e-08
-9.51809e-30
8.30504e-05
1.47847e-19
0.000127034
-0.000137565
0.202095
1.95598e-28
1.66703
1.03989e-18
1.49874e-29
2.5624e-28
4.26489e-20
4.54039e-29
1.15784
1.45486
4.32604e-08
8.65958e-13
0.0485711
-0.00016762
1.07262e-30
0.00225151
1.00281
7.96106e-25
0.00135288
1.40654e-13
2.07056e-06
7.33217e-13
-4.59053e-14
-0.0026971
5.037e-09
-4.96499e-22
1.47929
1.53087
0.518045
7.85763e-06
-3.91669e-22
2.10998e-08
8.53415e-08
1.20767
2.98919e-07
4.77581e-13
-1.35278e-29
0.499908
1.42071e-06
1.51512e-05
0.224843
1.04813e-06
0.911725
1.48108
-1.09552e-21
6.12032e-11
2.77395e-05
-1.35703e-13
2.20661e-08
1.77282e-05
0.00488772
1.16548e-20
1.37318e-12
0.000155261
6.46019e-07
-1.13767e-12
-2.94176e-05
3.76842e-27
2.58531e-22
0.0327647
4.32928e-23
-2.0452e-17
-8.61948e-17
0.000301755
0.00019151
-1.47665e-24
1.5082
-4.53423e-14
1.39371e-05
-1.76043e-16
1.98562
1.05047
3.89326e-16
0.410583
1.85247e-06
-0.00266352
-2.44494e-15
3.32948e-11
5.11163e-10
4.50946e-17
1.84814e-08
0.0822489
3.94483e-08
1.88034e-06
5.81888e-07
1.41615
1.395
0.000333167
1.38728
1.29146e-10
1.88347e-07
3.30506e-06
8.77956e-07
1.46033
1.25103e-05
0.209421
0.736104
1.22668e-05
1.76279e-06
1.29562e-28
3.05183e-10
1.85184e-24
7.86438e-20
0.199554
8.30893e-07
-1.09633e-20
1.90579e-11
-5.6039e-23
2.97166e-06
5.08055e-06
0.0181119
3.8062e-09
7.28353e-31
-4.90717e-24
1.40548
2.22306e-08
5.17367e-25
0.993339
0.0155692
-1.55305e-16
3.94384e-05
-3.50015e-05
-5.03644e-13
0.782305
1.5497
0.511547
1.86914e-22
3.63704e-12
0.000282638
1.23942
4.21708e-21
1.17043e-10
-5.77119e-21
0.000120246
7.84955e-12
-0.000785285
3.87731e-17
-1.81086e-17
1.467
-0.000619544
-6.81882e-22
1.4931
7.85679e-05
0.00037658
-2.0114e-20
-2.73542e-30
0.00488398
1.24645e-09
-2.6065e-12
-0.000701796
2.30731e-07
1.43097
4.95109e-06
1.29798e-22
9.64136e-13
1.4445e-12
1.31195e-10
0.000508025
6.99266e-05
5.75877e-25
1.4659
1.85056e-25
-0.000612002
9.03057e-13
-2.91176e-15
3.76879e-05
3.46429e-11
1.59161
-1.21766e-31
1.00367
2.97664e-07
2.02092e-13
7.8891e-15
3.21415e-10
0.89353
7.7836e-06
1.602e-11
0.0123697
4.77625e-07
-4.11236e-26
1.2031e-12
7.42153e-23
6.06611e-10
3.12606e-24
5.88675e-10
5.38102e-23
7.54167e-17
1.08281e-06
0.000132345
0.000418326
5.03437e-12
5.47864e-08
-1.66155e-24
-4.93311e-21
1.55649
2.20606e-05
-1.41883e-13
-2.21692e-17
-1.53869e-05
3.49985e-25
2.25189e-07
8.64741e-12
-3.95236e-05
-1.02196e-21
1.5113e-30
2.64862e-07
0.0833913
1.46096e-26
-2.62166e-13
1.34277e-14
1.18582
0.524179
1.46305e-08
-1.66959e-27
2.26745e-06
-1.43742e-28
-8.57723e-07
0.479707
2.87383e-08
-3.09197e-08
1.74175e-09
1.30447e-12
-2.74399e-25
1.03498e-11
1.54187
0.00162868
-8.8495e-11
1.33116e-24
3.21202e-06
2.03142e-30
0.000113303
0.156599
-4.4963e-06
-1.01241e-08
3.29966e-07
-9.89111e-23
4.6585e-13
1.13384
0.00202836
-0.00010019
4.73789e-27
1.30924
-3.69186e-27
-8.66596e-06
0.0138555
1.63621e-08
3.85246e-20
-5.47262e-18
-2.01387e-21
1.23133
0.620425
0.846933
3.57811e-11
1.01468e-17
0.679006
0.997307
1.02265
-6.81168e-11
4.87004e-22
-5.29227e-28
0.154513
8.76611e-14
1.41776
2.44781e-05
3.64068e-12
7.94913e-05
3.58705e-14
-1.40548e-13
0.658779
7.56555e-26
8.84864e-11
-4.40508e-06
1.01486
1.06134
3.05282e-17
2.66857e-19
1.44036
-3.05135e-24
6.05429e-22
1.2635e-10
2.42819e-27
0.961771
0.0485158
-9.39563e-18
1.66391e-11
-1.11658e-17
1.09274e-12
-7.04785e-06
-0.00644778
-4.84736e-11
-1.76324e-24
2.15932e-10
-0.000223174
8.56646e-20
1.32854e-08
-1.339e-08
1.4781e-05
0.978837
-2.29715e-07
0.0926806
-1.4965e-14
1.87258e-21
2.3324e-11
0.000219898
1.46448
-3.42838e-23
2.23778e-09
0.309878
-3.10531e-27
0.974475
-5.31361e-18
-2.85391e-18
1.73794e-08
4.48098e-05
1.93823
0.939757
1.95117e-16
1.03556e-10
1.00213
1.4917
4.20977e-08
0.000164667
0.324514
1.36357
0.991732
-7.178e-25
-2.01355e-06
1.57666e-09
-2.28584e-18
4.37196e-08
2.57957e-11
-4.17425e-16
0.989261
0.81176
-0.000252525
1.43855e-26
0.0006259
1.01201e-09
2.10043e-10
1.29064e-12
0.000322567
5.2666e-11
2.11571e-10
1.10627e-18
1.15417
-4.74406e-30
-0.000106825
-4.51554e-23
1.46459
1.48648
1.49589
1.46593
1.58532e-21
5.72101e-07
2.42366e-26
-5.603e-25
0.217343
6.38706e-06
-1.35189e-12
2.47391e-08
0.000293108
0.000716783
-1.10607e-06
7.59777e-06
0.123999
8.896e-14
0.499602
4.20635e-20
-0.000108093
1.43277
1.35146
3.49946e-12
1.97713e-24
8.03373e-09
1.17038e-22
0.531651
-5.42977e-29
0.956075
-8.40172e-06
3.31399e-11
-1.2051e-23
1.22753e-09
7.54445e-06
-5.54793e-10
2.78329e-11
0.323263
9.62278e-24
0.00664251
0.0766539
0.000340122
1.36304
1.29056
-1.88128e-05
8.67671e-23
6.49331e-12
0.346705
-1.22527e-24
1.60822
0.000408946
5.12658e-13
-8.65622e-23
2.14061e-05
1.50317
1.96521e-06
1.39483
0.00023021
0.000138091
0.00088436
-7.30891e-22
7.7468e-23
0.00166707
0.00908251
1.06903e-11
0.625666
-8.38601e-17
-4.53598e-24
-1.22205e-28
-2.18322e-17
0.00394917
0.256427
-1.84542e-13
2.15671e-08
2.47168e-25
2.27805e-09
1.10158e-08
-2.75634e-24
2.99692e-05
1.86381e-10
0.000706356
-0.00295124
0.0016677
1.01914
0.715179
1.01823
0.994577
2.28632e-09
3.08535e-18
1.20338
1.93173
2.15869e-29
2.18572e-08
-6.59706e-08
1.49479
-0.000161831
3.22841e-11
-1.77893e-27
7.8381e-08
0.353353
0.0314638
-0.0518233
0.0197754
1.79253
6.62599e-06
0.00137952
0.0171071
1.98177e-10
1.04148e-26
0.000339075
1.56208
1.16561e-09
0.799985
6.06869e-05
2.2978e-18
0.00168487
9.80832e-12
-8.58364e-13
1.8378e-11
0.982128
-1.3863e-09
0.978903
1.6451e-18
3.31832e-05
-4.20911e-10
-1.76023e-19
0.000363091
-1.60653e-06
6.27298e-05
1.47364
0.000128725
1.94369
1.70688e-09
6.36419e-29
3.30096e-14
1.49763
-3.87305e-05
0.162853
9.0545e-07
-3.7135e-20
2.7328e-29
-7.16696e-15
6.4447e-11
9.1263e-08
2.42117e-11
-9.36561e-22
-0.000153621
-2.37787e-11
0.000905189
1.68586e-15
-1.11662e-08
0.00250634
5.88795e-09
0.000179289
1.97795
-1.01263e-23
-4.51313e-31
-7.85907e-14
8.73416e-07
1.58951e-05
2.18786e-12
2.06012e-07
1.64083
4.28039e-05
1.52153e-07
1.50584
1.50268
1.61943
-8.07243e-20
1.85532e-06
1.29639e-05
-2.96102e-11
-2.25785e-21
1.28591e-08
-1.63122e-06
4.03446e-10
0.0264319
1.29447e-09
1.50327
-8.9867e-14
1.83974
0.767637
0.0020006
1.47494
-2.16328e-30
-0.0471138
8.82783e-05
-3.72644e-28
-2.42938e-11
-3.28259e-14
3.31038e-07
2.99176e-11
-1.03e-14
7.2444e-09
0.0167233
6.03041e-07
2.54796e-32
1.0526
1.30852e-06
0.237096
1.52684
1.47588
2.72449e-06
0.770919
2.94116e-11
2.05078e-15
1.6246e-21
1.58026e-31
-2.21998e-12
5.08604e-11
1.24078e-08
-5.59047e-07
1.1724e-31
0.942493
-3.06342e-32
-7.28713e-05
-1.72324e-28
0.361736
0.503234
0.000103352
-4.24661e-21
-6.25763e-26
1.76862e-11
0.590168
1.06434
0.000235546
2.36234e-08
4.3342e-05
-8.35437e-24
-3.55979e-07
-1.87222e-07
-0.00011127
1.64024
-3.55561e-18
0.334898
4.56712e-10
3.50965e-12
4.46985e-06
-1.59328e-25
0.918565
0.548312
0.545452
0.000592605
0.266687
0.00330116
-4.77643e-16
0.0315872
0.43506
0.228452
-7.18686e-21
4.03041e-05
1.51741e-20
2.67284e-06
-2.29067e-08
-1.88882e-16
0.796565
1.25027e-11
-1.71011e-07
5.76208e-08
0.94765
-2.95025e-08
3.11262e-13
3.85291e-06
0.23853
1.0921e-24
0.960877
-1.84483e-05
2.8566e-18
-9.60941e-27
-2.07414e-23
0.179346
0.94357
1.22706e-09
0.000186938
8.12463e-06
2.83075e-07
-4.88941e-16
8.4511e-30
1.55771
0.230257
0.16798
3.96423e-05
1.16237e-05
1.63965
1.09693e-10
-6.46382e-06
-2.54033e-11
-2.31484e-18
1.13214e-08
1.38489
2.95326e-05
1.83878e-11
1.30201
2.63275e-05
-1.05394e-05
-4.81407e-25
-2.20123e-05
5.94748e-06
2.80088e-11
1.92001e-16
0.000764865
-1.03853e-05
4.52779e-07
9.19123e-14
1.09215e-24
-0.00146962
1.52592
1.391e-23
2.01593e-07
2.64774e-28
2.32917e-20
1.09922e-11
1.39066
1.41691e-09
1.54801
1.58802
8.10042e-28
3.74278e-08
0.113726
-3.46889e-21
0.788514
-1.81367e-12
-0.00196353
1.46684
0.000163347
0.00169869
-0.000831656
0.916365
1.45244
8.97221e-19
5.72414e-08
3.97695e-24
1.48387e-07
0.0450388
-0.000302999
3.73347e-09
4.65825e-14
1.05903
1.40231
0.14271
-0.000243858
1.40507
1.50554
0.612559
3.73347e-05
-1.80772e-19
0.000307407
3.86285e-12
8.01674e-21
0.000263785
1.62258e-09
1.5955e-08
6.39809e-05
0.202858
0.00172492
-0.000472706
1.63413e-11
-1.16058e-20
0.013209
1.44157
3.84426e-20
-7.2592e-30
1.592e-10
0.000139597
7.50613e-09
-3.2953e-13
0.000839146
7.82448e-05
4.34405e-07
-1.17738e-11
0.472443
6.55692e-10
-8.82211e-07
0.989301
5.34745e-10
1.6075
7.2027e-07
0.42309
2.57468e-08
6.89161e-12
4.65677e-11
1.56393e-10
-3.1919e-26
1.4459
-4.72479e-12
-3.95168e-22
1.31927e-10
2.35448e-07
0.710264
-3.74835e-21
0.982831
1.45218
2.05459e-05
3.40229e-13
3.05705e-24
-9.35204e-12
5.84406e-30
7.78117e-07
-1.43607e-08
0.00124335
-0.000357284
1.66876e-12
4.79545e-10
3.87349e-13
1.53747
1.02316e-22
1.11252e-14
-7.36554e-07
2.3237e-12
-2.60388e-15
0.955162
8.73253e-26
0.0682966
2.44032e-08
1.84884e-31
-0.000247761
-1.12362e-07
0.0211222
3.26738e-09
6.02234e-19
3.82613e-05
8.93454e-10
5.37989e-27
0.0279352
-8.82394e-24
-1.05077e-12
8.32842e-25
1.39693
3.66326e-16
0.00200065
7.98535e-09
1.60077
0.000145217
0.664158
0.000439073
-4.71475e-22
3.46308e-10
2.65344e-10
5.52118e-08
-5.82831e-08
1.11067
-4.90854e-15
6.55208e-25
1.70377e-12
1.30349
-0.000413621
2.49933e-22
2.59115e-11
0.934827
6.60394e-07
-1.41153e-09
5.61275e-07
-0.000132749
8.92534e-07
-2.18481e-17
1.82473
1.00739e-26
6.41481e-11
2.19811e-05
1.0275
1.52827
1.30922
-1.19242e-28
1.45289
-7.52123e-22
-7.6041e-15
0.339799
3.38315e-08
1.28644e-22
8.83557e-12
0.000716018
2.74948e-05
8.29591e-09
1.42268
-3.71217e-14
0.00308553
1.09419e-06
-4.02471e-09
-2.09896e-19
7.89423e-27
6.47288e-21
-0.000190625
0.0794627
0.817507
1.17708e-05
-1.39282e-05
-3.29447e-16
7.78164e-25
-0.000125659
1.32316e-12
1.31728
1.58918e-25
3.59091e-12
2.60068e-05
1.27738
-0.00126644
8.01475e-20
-4.70351e-05
0.52977
6.18996e-06
1.64783e-21
1.12932e-13
6.37782e-10
1.69053
-2.10462e-25
1.52693
2.29157e-07
4.43894e-25
-1.17751e-16
-6.13947e-21
0.0407759
1.41446e-13
3.44574e-12
1.04232e-08
0.00111184
0.000214589
-2.80899e-11
-0.00112308
1.37863e-07
-3.12829e-06
0.0521382
8.06582e-14
1.41117
1.44057
3.61674e-05
0.819292
1.50234
-0.00142326
0.0901087
-3.48283e-12
1.94246e-09
8.27664e-05
1.27141e-17
1.4297e-12
1.02339e-07
0.000279636
-1.80206e-19
8.97103e-10
4.6069e-08
-3.54683e-09
0.373442
0.0512217
1.61527e-24
0.00998358
0.000116303
5.95064e-22
1.33865
1.00232e-27
0.167272
8.66462e-15
1.6229
-3.13016e-26
-0.000787167
7.14955e-06
1.1448e-10
1.11442e-10
9.6829e-24
-2.89761e-05
0.177805
2.49753e-07
1.53033
-2.29633e-25
4.09434e-17
1.08237
-3.07123e-22
1.48547
0.0875616
5.23048e-21
2.32428e-29
1.9171
1.37911
-0.000513503
-2.33321e-07
-2.18404e-21
-3.33021e-26
8.17359e-19
-2.39182e-30
4.23064e-10
0.0352467
0.00145616
5.58924e-13
1.20969e-14
0.00112131
-1.66158e-20
1.42397e-06
8.075e-25
2.0356e-13
2.66107e-05
6.71829e-25
0.0880261
-1.52318e-05
0.967909
9.19982e-11
-2.50392e-18
-5.93495e-20
-5.80444e-12
-5.60748e-24
-3.99888e-13
0.00605053
2.55791e-10
1.85947e-08
1.901e-10
0.00132675
3.45742e-13
2.91023e-10
1.81952e-08
-5.96957e-09
-6.02631e-11
1.53003
1.54203e-31
6.39304e-08
0.326205
0.0217618
0.00780031
-7.57311e-23
1.03539
1.47353e-05
1.47395e-20
0.042407
4.49631e-24
0.000360439
1.00956
5.97507e-25
2.63946e-26
1.44775
1.45637e-06
5.0037e-09
4.5754e-25
-5.44888e-05
1.11963
8.57757e-11
6.0888e-15
-2.69084e-17
7.92355e-12
2.30338e-06
1.28356e-05
5.29097e-32
3.13313e-09
3.28621e-11
0.889553
0.984915
2.01773e-31
-4.48071e-09
3.94178e-08
7.87262e-22
3.96181e-11
-3.13458e-27
1.28254
-3.109e-31
6.71929e-30
-1.58367e-30
-1.64423e-09
0.0028137
0.969648
-7.65762e-10
-5.98263e-31
7.38462e-26
-4.67227e-28
6.19822e-07
6.83693e-21
0.0745084
0.000435181
1.02116
2.35627e-19
-1.81414e-19
2.59446e-14
4.31459e-05
0.73513
-0.00145532
0.000210627
1.15026
1.01787e-24
0.968763
-2.36161e-08
-1.31181e-24
3.05593e-17
1.08077e-08
1.96779
1.05514e-05
1.20919e-17
0.000372906
1.0822e-05
2.23944e-06
0.00206589
2.5697e-09
3.25891e-22
-0.000563785
4.01455e-22
1.27563
9.41022e-22
1.09278e-30
2.58877e-21
1.90685e-09
1.01333
-4.4626e-21
0.894061
-1.54023e-27
1.20495e-06
9.20704e-08
3.71102e-06
1.72132e-14
0.0204984
1.0689
-2.79111e-18
1.86294e-07
0.00556254
-6.18846e-15
5.28662e-07
6.62517e-19
1.40531
0.0130022
3.31995e-10
-0.0314785
1.92393e-07
0.000938099
5.63975e-18
0.000230233
3.833e-26
-2.80924e-30
1.04296
0.00034823
1.21162
0.000247696
0.769894
6.08075e-14
0.000810557
0.193514
1.24293e-22
5.21597e-17
-0.0219423
-1.76285e-15
4.34818e-21
0.801672
0.956672
1.51546
3.45695e-05
1.6096
-0.000125276
1.72708e-10
-0.000172581
0.016987
4.24123e-05
-2.83008e-05
4.64136e-06
-7.20503e-11
-2.33009e-12
-6.97971e-08
0.0041056
0.054984
0.316843
3.61446e-20
2.13704e-20
7.64854e-12
0.282177
1.01254
9.89865e-07
0.730998
1.18236e-16
7.63559e-11
1.01324
-4.64802e-07
1.307
0.401717
6.11819e-05
0.424239
1.45555e-20
-1.89569e-08
-1.47654e-17
0.973318
0.00283306
0.379158
1.62106e-24
0.990861
1.38306e-05
-2.90985e-29
-1.01072e-25
2.90498e-15
1.01083e-16
1.98516e-16
-1.08092e-06
-0.000170381
9.67692e-07
3.29782e-10
-4.11727e-21
8.28934e-05
0.0287329
1.37721
6.82436e-06
0.0140536
-1.79845e-25
1.74108e-21
0.202336
-7.25438e-05
0.3146
1.06496e-05
-0.00122253
5.78715e-20
1.12888
5.57675e-12
2.65941e-11
-0.00152469
-3.01073e-13
0.097055
0.0800927
-6.16957e-20
-1.0859e-19
0.985563
-3.34752e-13
8.322e-09
1.4928
2.46383e-08
2.07319e-10
0.13717
1.93591e-05
-0.000413896
5.17761e-05
-6.38027e-12
-3.284e-26
0.816126
-5.45116e-16
3.147e-05
0.520519
4.48963e-11
3.18138e-08
1.48871
-9.66013e-19
1.35467
0.000289706
3.06937e-10
1.97219e-17
-2.14235e-13
6.2477e-14
0.0676063
-1.70055e-19
1.91947
0.00166431
8.22508e-05
3.16538e-28
0.978804
-4.36287e-13
-3.11312e-06
2.42751e-07
1.73425
3.05715e-05
1.49594e-29
2.04717e-13
6.48528e-10
1.53456
-1.06107e-21
1.72066
5.17212e-09
3.29933e-26
1.31002e-05
-5.77175e-29
5.14746e-10
0.00786088
0.258715
0.00994907
1.03861
3.07185e-23
-1.22995e-12
8.8598e-09
6.2116e-12
7.78106e-12
1.51026
0.151658
0.614467
1.0844e-22
1.3704
0.191653
-3.27324e-24
-1.63818e-28
0.267725
-4.20599e-07
1.57561e-31
-0.158329
4.09942e-13
0.333588
0.000151453
-2.0663e-24
0.745772
5.102e-06
1.56299
-1.84963e-25
0.00948446
0.00325098
-5.43019e-18
-3.9645e-17
9.68631e-08
1.00567e-09
6.7467e-19
0.0788581
-4.46177e-22
1.23774
0.293479
3.37324e-13
5.35806e-05
4.07018e-09
0.000256641
-0.000129038
-3.10709e-05
-3.04403e-07
0.00755365
0.0339885
4.05681e-12
-1.08859e-13
5.47663e-14
0.190404
-3.22891e-24
1.02115e-05
3.12525e-22
-1.35637e-05
5.44696e-21
0.000655938
0.0114313
0.559443
0.000150349
4.48728e-10
0.000796151
0.875427
-2.35495e-16
8.2351e-15
-1.2152e-07
-2.25512e-14
-3.7431e-08
2.68111e-11
8.92137e-11
1.33944e-27
3.53755e-23
9.13831e-14
2.03595e-13
8.28642e-28
6.18513e-24
6.9001e-06
-5.75187e-12
4.05122e-08
1.33159e-24
0.337402
-0.000640145
1.00619
0.382467
0.189558
1.19254
1.48103
-5.1071e-25
1.73976e-18
1.44205e-12
8.94121e-09
0.0106796
6.8641e-06
-1.82957e-19
0.308575
2.64985e-21
-4.84516e-19
7.64392e-29
1.42827e-10
1.06369
2.15043
2.19486e-07
0.0464072
7.32145e-28
2.84622e-11
1.19515
0.523288
4.11202e-11
3.10991e-06
0.975765
2.7161e-09
1.72812
1.47428
0.00193471
5.10434e-05
-2.53157e-10
0.00239011
0.972495
1.67927
5.96587e-05
-5.06145e-05
1.49167e-11
-1.5037e-21
0.171858
0.00202035
9.54974e-20
1.63933
1.5979
5.30614e-07
1.00279
3.58236e-21
-2.98709e-28
1.35018
2.97809e-06
-0.030329
-3.5254e-05
0.000950805
1.50588
1.19142e-11
0.93913
7.32562e-16
2.29957e-05
7.13297e-08
-4.45663e-25
1.62645
8.93309e-10
1.18339
0.00626309
-0.00124036
2.74342e-10
2.19307e-12
1.55131
9.11482e-09
6.10256e-06
4.45538e-06
-1.44655e-28
2.51745e-18
0.114298
1.72834e-17
-1.02938e-08
1.20756
0.140863
4.49287e-25
3.96927e-22
-2.88123e-06
-1.59136e-06
5.63275e-13
-1.52065e-07
1.47092
1.83207e-11
3.69292e-06
1.63785e-13
-1.68722e-08
0.000136124
0.265379
4.15996e-21
1.36334e-05
0.977882
1.43039
3.07562e-15
3.31315e-17
0.152042
-2.00154e-06
-8.38424e-11
1.00054e-20
3.29904e-26
3.86863e-12
-1.1499e-09
1.40537
-3.24085e-22
-2.42755e-28
3.4142e-19
0.000894514
5.3529e-07
9.25662e-09
2.27204e-11
9.1551e-26
-2.16621e-20
1.0974e-08
1.46573e-11
1.5213
3.75035e-06
1.50401
1.05224e-10
2.54028e-07
2.28676e-18
2.45285e-10
-1.00787e-23
-1.32163e-05
-5.49413e-16
0.0140274
0.000127756
-0.000423492
-4.40852e-20
-8.23276e-21
0.971903
2.3936e-14
2.58006e-08
0.552368
-1.03107e-21
1.28577e-06
2.1603e-07
3.01103e-12
1.25069
-5.5132e-09
-3.46912e-17
0.529764
-1.12717e-17
-1.24398e-16
3.38167e-09
3.40946e-17
1.59389e-08
-1.54847e-22
-7.00138e-06
-3.78651e-17
1.38103
-3.16428e-13
2.01354e-11
-4.20517e-23
0.0643516
1.13985e-20
0.0742243
1.48416e-06
-1.60208e-12
-1.86036e-18
-2.50073e-09
-5.7043e-16
0.0100969
0.354302
0.000524226
0.665393
-0.00627427
1.47976
-2.10417e-18
0.453015
-1.26771e-09
1.8972
2.52748e-08
-9.53262e-21
4.03023e-20
0.00256088
-6.90315e-28
-2.44237e-23
0.000519586
-8.65858e-17
1.92739e-05
0.000807296
1.55455
1.15624
5.52873e-24
-4.22646e-15
1.12285e-12
0.939342
2.27539e-21
-1.29527e-20
0.000109294
0.00392004
5.66402e-09
2.78456e-10
1.15465
6.24059e-23
-1.76733e-24
-1.26585e-13
6.31135e-05
2.3323e-26
0.939933
0.0638719
1.97878e-11
8.87101e-14
0.976939
0.0534545
-2.12528e-07
1.12061e-10
-6.97001e-16
1.57991e-23
6.70382e-11
5.86356e-11
-9.88331e-19
0.726795
7.20114e-17
0.172985
0.00178724
-1.23137e-13
1.82735e-06
1.37155
-8.52984e-29
2.76382e-12
0.0983246
-2.35372e-17
1.35293
-2.75765e-07
-9.89834e-10
-1.12229e-14
1.65251e-08
-1.47985e-29
0.0247113
1.52261
-9.59115e-20
1.50316e-08
1.40757
1.50173
0.705312
0.022016
-0.230425
3.37933e-10
2.7691e-13
-1.15701e-12
0.109063
5.77813e-24
7.75756e-10
3.93206e-06
3.80142e-11
1.57444e-10
0.116259
1.26163
-5.18108e-12
-1.15625e-23
2.23741e-06
-4.37304e-21
-4.30491e-28
-4.05506e-19
2.48032e-12
1.27226e-13
-3.40474e-30
-4.16104e-29
3.66012e-16
2.26305e-12
-7.81092e-17
3.07647e-13
1.5261
0.183934
5.47424e-30
5.1512e-05
1.73857
-2.41516e-32
-3.59475e-05
1.86002e-13
7.46229e-06
0.141833
-6.51094e-07
0.837216
1.80368
-2.90151e-09
2.03811e-07
-4.86378e-15
0.00629976
-4.97039e-15
5.74124e-10
2.05415e-12
1.91793e-19
0.013358
2.88391e-11
4.51701e-10
1.84056e-05
0.180393
1.04802
-0.00021723
1.04069
9.15161e-08
6.82442e-05
1.62068e-14
1.37603e-08
-9.41459e-06
-2.65589e-29
5.80897e-11
-9.81122e-26
-4.35053e-14
0.000211399
1.92365e-07
0.964534
-2.74293e-25
4.16166e-18
1.3607e-18
-5.27509e-26
-4.7012e-17
7.18063e-19
1.73311
0.000733833
-1.69531e-08
0.017158
2.45878e-08
1.68837e-19
1.47018e-07
1.39038e-12
7.3707e-05
0.403119
1.64559
5.40333e-11
1.08868e-05
0.000769647
1.04226
0.000187815
1.52152
2.74999e-06
-7.65369e-06
1.4363
0.955159
3.837e-27
5.56324e-05
0.838736
1.09731e-22
-6.06441e-14
0.0472126
1.35268e-07
1.12665e-12
1.15182e-22
4.01427e-06
1.38814e-22
1.4874e-20
-4.46562e-27
0.0198391
1.54374e-05
4.4087e-20
0.166206
9.03733e-08
1.27528
-0.0073759
5.74375e-06
1.36541
0.0040736
3.34139e-09
0.629805
2.35931e-23
4.60718e-11
4.7894e-11
-4.79607e-10
0.000863108
-2.82318e-25
0.0276075
-1.12885e-16
-1.90258e-06
1.03003
8.21096e-13
3.04439e-10
-4.58096e-20
-8.54824e-27
0.00106559
0.000309261
2.67455e-25
4.39109e-12
8.50033e-12
0.514573
1.5085
7.97589e-30
0.0167648
1.55232
4.44038e-15
3.76629e-12
0.0124954
4.33678e-12
-1.21126e-10
-9.85762e-23
-1.22763e-28
-4.14111e-24
-7.39585e-24
6.01478e-22
-1.35381e-05
-1.47289e-19
1.81175e-18
1.45283
6.88914e-26
-7.23751e-25
0.735814
7.38077e-09
5.0724e-29
0.254715
0.583613
-1.32438e-25
2.69673e-22
3.23759e-06
6.493e-07
1.74377
-1.17923e-11
-3.47853e-23
-1.20093e-06
-0.082142
0.0839428
5.53689e-13
0.43061
5.74262e-19
2.25376e-23
-3.54533e-24
-3.64773e-26
-1.18019e-16
2.32963e-11
3.14695e-09
9.05366e-27
9.23495e-13
1.35502
-1.05625e-26
0.0272681
6.69335e-19
-1.70399e-23
3.07303e-11
2.00297e-23
9.51452e-09
1.81158e-15
0.607985
2.49441e-22
-9.82037e-19
2.87388e-22
-3.07779e-27
1.08786e-30
-9.39459e-20
1.09389
8.91488e-25
9.96216e-14
1.48452e-11
5.63751e-25
-1.63294e-16
0.43799
-9.72244e-29
-9.67614e-20
1.62006
1.52254
2.38176e-06
5.64111e-07
7.86979e-14
-6.39218e-09
-1.11494e-14
2.9062e-27
0.00131806
0.0573638
1.33891e-09
3.33431e-20
3.38222e-06
0.000934355
0.852326
1.01293
0.0465899
1.68504e-25
7.65166e-05
-4.01721e-22
1.95084e-09
0.18247
-3.82103e-13
0.803034
2.86747e-25
-4.75154e-16
4.49537e-15
-3.18191e-31
-0.000319449
-9.18844e-29
1.35229
-1.01938e-06
1.7701
1.82341e-06
-1.12828e-24
2.13345
1.20759
0.723245
9.92023e-28
0.57756
0.00550472
1.52633
4.49995e-07
4.67982e-07
1.32814
1.6757
0.00137277
1.16401
0.0382382
-2.25196e-26
1.08467e-09
1.01359
0.610981
1.20712e-09
0.00392155
-1.72511e-19
8.99251e-19
-3.09541e-29
0.0444812
-1.4828e-29
2.22908e-07
1.44728
-1.70837e-18
-2.80853e-19
-6.19567e-07
8.49881e-08
-3.44447e-08
0.00258344
0.857331
5.21599e-24
-2.01006e-05
-9.66512e-05
1.85295e-15
1.85422e-16
7.17007e-09
0.000192812
1.16379
-2.38335e-09
3.32605e-23
0.14258
-0.00162184
0.00775135
0.011049
0.00388339
0.496266
1.32111e-19
1.43836e-06
0.81594
2.19774e-11
-3.01846e-10
-0.00181858
0.0442489
-2.00785e-27
-1.46568e-17
8.78045e-18
0.0490206
3.81192e-08
2.21116e-23
1.5051
3.75399e-06
2.8104e-10
1.02301
-5.62075e-08
-0.00127209
0.532963
4.10397e-18
-7.31542e-27
0.0246188
-3.30774e-23
1.53689
5.33312e-23
1.79928e-09
-1.87225e-31
0.000765302
-7.5951e-12
-4.70814e-32
8.7642e-08
0.152682
1.60382e-24
9.98221e-14
-0.00111642
0.00119577
0.834128
0.00723975
-1.24097e-21
0.859743
1.72226e-07
-4.54071e-20
1.32204
2.55562e-13
0.0389073
-8.44247e-30
-5.72966e-14
1.0085
6.3225e-12
3.27552e-11
3.54871e-05
7.80155e-12
5.01728e-26
7.19908e-22
-0.000121234
0.980222
0.0701602
1.4293e-05
-1.72517e-25