/*--------------------------------*- C++ -*----------------------------------*\
| =========                 |                                                 |
| \\      /  F ield         | OpenFOAM: The Open Source CFD Toolbox           |
|  \\    /   O peration     | Version:  4.1                                   |
|   \\  /    A nd           | Web:      www.OpenFOAM.org                      |
|    \\/     M anipulation  |                                                 |
\*---------------------------------------------------------------------------*/
FoamFile
{
    version     2.0;
    format      ascii;
    class       volScalarField;
    location    "0.4";
    object      p;
}
// * * * * * * * * * * * * * * * * * * * * * * * * * * * * * * * * * * * * * //

dimensions      [0 2 -2 0 0 0 0];

internalField   nonuniform List<scalar> 
500
(
-1.39261e-06
-2.65959e-06
3.11987
3.11987
0.0147
0.0146999
-2.29155
-2.29155
-0.0467499
-0.04675
2.59749
2.59749
0.0166083
0.0166083
-2.82675
-2.82675
-0.0445559
-0.0445559
-0.00526584
-0.00526622
-0.0993406
-0.0993406
-0.167267
-0.167267
0.00441299
0.00441297
0.0538771
0.0538771
-0.0295697
-0.0295697
-0.075653
-0.075653
-0.0548007
-0.0548007
-0.0923401
-0.0923401
-0.104076
-0.104076
-0.109897
-0.109897
0.00390459
0.0039046
0.074649
0.0746489
0.0010771
0.00107707
-0.175526
-0.175526
-0.0366312
-0.0366312
-0.0258447
-0.0258447
0.0473401
0.0473401
-0.209995
-0.209995
0.0495485
0.0495485
-0.0452532
-0.0452532
0.00487562
0.00487561
-0.0752057
-0.0752057
0.00882502
0.00882489
-0.0489935
-0.0489935
-0.00289701
-0.00289704
-0.0182719
-0.0182719
-0.051469
-0.051469
-0.0306867
-0.0306868
-0.24314
-0.24314
0.0276323
0.0276323
-0.0358057
-0.0358057
0.0104078
0.0104078
0.629036
0.629036
0.0285363
0.0285363
-0.455346
-0.455346
-0.0355867
-0.0355867
-0.611499
-0.611499
0.389883
0.389883
-0.0558998
-0.0558998
0.00247297
0.00247298
-0.0679067
-0.0679067
-0.323233
-0.323233
0.0365373
0.0365373
0.234917
0.234917
-0.0465638
-0.0465638
-0.33019
-0.33019
0.0286262
0.0286262
0.182846
0.182846
-0.0960346
-0.0960346
-0.126128
-0.126128
-0.00454138
-0.00454139
0.0573714
0.0573714
-0.442374
-0.442374
-0.0488791
-0.0488791
0.326661
0.326661
0.0103592
0.0103592
-0.171451
-0.171451
-0.020653
-0.020653
-0.0189848
-0.0189848
0.101739
0.101739
-0.0519942
-0.0519942
-0.198294
-0.198294
0.0583871
0.0583871
0.0491311
0.0491311
-0.482122
-0.482122
-0.0543949
-0.0543949
0.586797
0.586797
0.0205948
0.0205948
-0.249658
-0.249658
-0.0454132
-0.0454132
0.0417844
0.0417844
0.0266695
0.0266695
-0.12214
-0.12214
-0.00637638
-0.00637644
-0.120174
-0.120174
0.0336642
0.033664
-0.104181
-0.104181
-0.0833047
-0.0833047
-0.00466425
-0.00466425
0.098318
0.098318
-0.0862658
-0.0862658
-0.162997
-0.162997
-0.017118
-0.0171179
0.124645
0.124645
0.819896
0.819896
0.0366395
0.0366395
-0.585979
-0.585979
-0.0258995
-0.0258995
-0.78176
-0.78176
0.569422
0.569422
-0.0641585
-0.0641585
-0.00551358
-0.00551358
-0.0403235
-0.0403235
-0.471488
-0.471488
0.0225009
0.0225009
0.381921
0.381921
-0.616129
-0.616129
-0.0506759
-0.0506759
0.404139
0.404139
0.0205355
0.0205354
1.35059
1.35059
0.0274583
0.0274583
-0.84415
-0.84415
-0.03416
-0.03416
0.938168
0.938168
-1.22617
-1.22617
0.00372757
0.00372757
-0.0565822
-0.0565822
-0.106998
-0.106998
-0.13759
-0.13759
-0.011673
-0.011673
0.115944
0.115944
1.60846
1.60846
0.0257885
0.0257884
-1.13661
-1.13661
-0.0357329
-0.0357329
1.27257
1.27257
-1.4761
-1.4761
0.00544891
0.00544893
-0.0554428
-0.0554428
-0.475283
-0.475283
-0.0471473
-0.0471473
0.4359
0.4359
0.0184334
0.0184334
-0.0403932
-0.0403932
-0.160955
-0.160955
0.0586434
0.0586434
0.0257292
0.0257291
-0.211776
-0.211776
-0.0312682
-0.0312682
-0.0327255
-0.0327256
0.120891
0.120891
-0.195307
-0.195307
-0.0280535
-0.0280535
-0.137067
-0.137067
0.0520093
0.0520093
-0.0545988
-0.0545988
-0.365021
-0.365021
0.0175798
0.0175798
0.15092
0.15092
-0.0543315
-0.0543315
-0.407779
-0.407779
-0.00192641
-0.0019264
0.120932
0.120932
-0.26492
-0.26492
-0.0296537
-0.0296537
-0.317679
-0.317679
-0.0442226
-0.0442226
0.0290947
0.0290947
0.396135
0.396135
0.319674
0.319674
0.0295531
0.0295532
-0.15419
-0.15419
-0.0358425
-0.0358426
-0.03365
-0.0336501
0.0548393
0.0548392
-0.130215
-0.130215
-0.041447
-0.041447
-0.112887
-0.112887
-0.0213662
-0.0213662
-0.584838
-0.584838
-0.0428415
-0.0428415
0.688377
0.688377
0.0198698
0.0198698
-0.703806
-0.703806
-0.0483755
-0.0483754
0.556591
0.556591
0.0104934
0.0104934
-0.220063
-0.220063
-0.090435
-0.090435
0.103544
0.103544
0.0092279
0.00922788
-0.260079
-0.260079
-0.050228
-0.050228
0.15477
0.15477
0.0212722
0.0212722
-0.384032
-0.384032
-0.0639986
-0.0639986
0.296324
0.296324
0.0272004
0.0272005
-0.194104
-0.194104
0.0258504
0.0258504
-0.0182371
-0.0182371
0.0299898
0.0299897
-0.268973
-0.268973
-0.0556533
-0.0556533
0.0636965
0.0636965
0.0115068
0.0115068
-0.382114
-0.382114
-0.0470887
-0.0470887
0.174484
0.174484
0.0207316
0.0207316
-0.0998239
-0.0998239
-0.264599
-0.264599
-0.00100632
-0.00100631
0.207346
0.207346
-0.264107
-0.264107
-0.0371444
-0.0371444
0.0525495
0.0525495
0.0391551
0.0391551
-0.770189
-0.770189
-0.0514571
-0.0514571
0.93765
0.93765
0.0140001
0.0140001
-0.913202
-0.913202
0.795324
0.795324
-0.0441128
-0.0441127
0.0203621
0.0203621
-0.282484
-0.282484
-0.0359624
-0.0359623
0.092601
0.092601
0.0316113
0.0316113
-0.0780409
-0.0780409
-0.118382
-0.118382
-0.205029
-0.205029
-0.0458284
-0.0458284
0.017712
0.017712
0.176192
0.176192
0.240435
0.240435
-0.000132978
-0.000132953
-0.198062
-0.198062
-0.076373
-0.076373
-0.224968
-0.224968
-0.0279975
-0.0279974
0.0279593
0.0279594
0.255909
0.255909
-0.289375
-0.289375
0.0518257
0.0518256
-0.049814
-0.049814
-0.00230166
-0.00230167
-0.0958929
-0.0958929
-0.150521
-0.150521
0.00121419
0.00121415
0.182323
0.182323
-0.340792
-0.340792
-0.0497985
-0.0497985
0.198993
0.198993
0.0358707
0.0358708
-0.0398193
-0.0398196
-0.0245874
-0.0245874
)
;

boundaryField
{
    frontAndBack
    {
        type            empty;
    }
    movingWall
    {
        type            zeroGradient;
    }
    fixedWalls
    {
        type            zeroGradient;
    }
}


// ************************************************************************* //
