/*--------------------------------*- C++ -*----------------------------------*\
| =========                 |                                                 |
| \\      /  F ield         | OpenFOAM: The Open Source CFD Toolbox           |
|  \\    /   O peration     | Version:  4.1                                   |
|   \\  /    A nd           | Web:      www.OpenFOAM.org                      |
|    \\/     M anipulation  |                                                 |
\*---------------------------------------------------------------------------*/
FoamFile
{
    version     2.0;
    format      ascii;
    class       surfaceScalarField;
    location    "0.4";
    object      phi;
}
// * * * * * * * * * * * * * * * * * * * * * * * * * * * * * * * * * * * * * //

dimensions      [0 3 -1 0 0 0 0];

internalField   nonuniform List<scalar> 
960
(
5.41282e-12
-4.65413e-06
-4.33194e-06
8.9861e-06
-4.65414e-06
-4.33194e-06
8.98609e-06
5.53316e-14
-1.65843e-05
1.65843e-05
-1.65843e-05
1.65843e-05
1.35001e-13
-8.9711e-08
8.97109e-08
-8.97112e-08
8.97108e-08
7.87396e-14
-1.55388e-05
1.55388e-05
-1.55388e-05
1.55388e-05
9.57786e-14
-1.04106e-07
1.04106e-07
-1.04106e-07
1.04106e-07
5.64765e-14
-1.65843e-05
-1.65843e-05
-3.37248e-15
-8.97112e-08
-8.97112e-08
-1.78814e-14
-1.55388e-05
-1.55388e-05
2.68265e-15
-1.04106e-07
-1.04106e-07
2.04794e-12
5.55125e-06
-1.02054e-05
5.55125e-06
-1.02054e-05
1.10538e-14
1.07555e-05
-3.37844e-06
-7.37705e-06
1.07555e-05
-3.37844e-06
-7.37705e-06
-2.9519e-14
7.15809e-07
-4.08808e-06
3.37227e-06
7.15809e-07
-4.08808e-06
3.37227e-06
8.32185e-14
4.19239e-06
2.92237e-06
-7.11476e-06
4.19239e-06
2.92237e-06
-7.11476e-06
5.16516e-15
-5.5631e-06
9.31695e-06
-3.75384e-06
-5.5631e-06
9.31695e-06
-3.75384e-06
4.41685e-14
1.02714e-05
-5.37029e-06
-4.9011e-06
1.02714e-05
-5.37029e-06
-4.9011e-06
-6.1216e-14
6.27151e-06
2.35893e-06
-8.63044e-06
6.27151e-06
2.35893e-06
-8.63044e-06
9.25259e-16
2.07423e-06
8.19715e-06
2.07423e-06
8.19715e-06
1.03286e-13
-1.55504e-06
7.82656e-06
-1.55504e-06
7.82656e-06
-3.5933e-14
2.80784e-06
7.94765e-06
2.80784e-06
7.94765e-06
-8.4009e-14
2.48225e-06
-1.76644e-06
2.48225e-06
-1.76644e-06
-2.22682e-14
-1.57948e-06
5.77187e-06
-1.57948e-06
5.77187e-06
1.21336e-13
-1.23804e-05
6.81727e-06
-1.23804e-05
6.81727e-06
1.23332e-13
-4.57948e-06
1.01307e-05
-4.57948e-06
1.01307e-05
-9.73776e-14
5.1779e-06
-5.1779e-06
5.1779e-06
-5.1779e-06
-1.29109e-13
3.91789e-05
-3.91789e-05
3.91789e-05
-3.91789e-05
4.49142e-15
1.74305e-06
-1.74305e-06
1.74305e-06
-1.74305e-06
-2.55713e-14
3.84642e-06
-3.84642e-06
3.84642e-06
-3.84642e-06
-4.80375e-14
9.71313e-07
4.20659e-06
9.71313e-07
4.20659e-06
-6.01844e-14
1.18217e-05
2.73572e-05
1.18217e-05
2.73572e-05
-2.99356e-14
1.03772e-06
7.05322e-07
1.03772e-06
7.05322e-07
3.58576e-14
2.77339e-06
1.07303e-06
2.77339e-06
1.07303e-06
1.30056e-13
-5.64312e-06
-5.64312e-06
4.27324e-13
-8.88434e-07
-8.88436e-07
1.28994e-14
-3.37114e-06
5.44537e-06
-3.37114e-06
5.44537e-06
9.12637e-14
-6.76131e-06
2.18183e-06
-6.76131e-06
2.18183e-06
-1.85118e-14
5.98967e-06
4.14105e-06
5.98967e-06
4.14105e-06
1.65229e-13
6.99452e-06
-4.63559e-06
6.99452e-06
-4.63559e-06
1.15084e-13
3.12126e-06
-8.49155e-06
3.12126e-06
-8.49155e-06
8.60782e-15
-8.26768e-06
9.23899e-06
-8.26768e-06
9.23899e-06
4.59618e-14
-4.08457e-06
1.59063e-05
-4.08457e-06
1.59063e-05
3.28649e-14
-8.75461e-07
1.91318e-06
-8.75461e-07
1.91318e-06
3.04164e-14
-3.99798e-08
2.81337e-06
-3.99797e-08
2.81337e-06
1.27802e-13
-1.0759e-05
1.0759e-05
-1.0759e-05
1.0759e-05
1.0614e-13
-6.99787e-07
6.99787e-07
-6.99787e-07
6.99787e-07
7.17657e-14
-3.05627e-05
3.05627e-05
-3.05627e-05
3.05627e-05
1.42299e-13
-8.61057e-07
8.61057e-07
-8.61057e-07
8.61057e-07
-1.09427e-13
9.79187e-06
-9.79187e-06
9.79187e-06
-9.79187e-06
9.60734e-15
3.18821e-05
-3.18821e-05
3.18821e-05
-3.18821e-05
-9.57366e-15
7.27126e-07
-7.27126e-07
7.27126e-07
-7.27126e-07
-2.99347e-14
8.37568e-07
-8.37568e-07
8.37568e-07
-8.37568e-07
4.50537e-14
-7.0797e-06
4.21022e-07
6.65867e-06
-7.0797e-06
4.21022e-07
6.65867e-06
-1.24394e-13
-9.89762e-06
4.42148e-06
5.47615e-06
-9.89762e-06
4.42148e-06
5.47615e-06
3.14028e-14
-4.61658e-06
-3.81267e-07
4.99784e-06
-4.61658e-06
-3.81267e-07
4.99784e-06
8.02805e-14
1.80134e-06
-1.30532e-05
1.12518e-05
1.80134e-06
-1.30532e-05
1.12518e-05
-2.73067e-14
-3.72078e-06
-3.35892e-06
-3.72078e-06
-3.35892e-06
-9.92448e-14
-1.30062e-05
3.10854e-06
-1.30062e-05
3.10854e-06
6.36246e-15
-5.2539e-07
-4.09119e-06
-5.2539e-07
-4.09119e-06
-7.59708e-15
1.41433e-05
-1.23419e-05
1.41433e-05
-1.23419e-05
-7.18648e-15
-1.9858e-06
-3.1921e-06
-1.9858e-06
-3.1921e-06
-6.42367e-14
-3.14243e-05
-7.75458e-06
-3.14243e-05
-7.75458e-06
3.05201e-14
-1.04812e-06
-6.94931e-07
-1.04812e-06
-6.94931e-07
-5.47459e-14
-4.13614e-06
2.8972e-07
-4.13614e-06
2.8972e-07
-7.50322e-14
1.59722e-05
-3.65371e-06
-1.23185e-05
1.59722e-05
-3.65371e-06
-1.23185e-05
1.60316e-14
2.2573e-06
-1.89138e-06
-3.65918e-07
2.2573e-06
-1.89138e-06
-3.65918e-07
-4.33383e-14
7.17564e-06
-1.13813e-05
4.2057e-06
7.17564e-06
-1.13813e-05
4.2057e-06
3.39845e-14
2.42393e-06
-3.04883e-06
6.249e-07
2.42393e-06
-3.04883e-06
6.249e-07
-3.06962e-14
-6.32119e-06
-1.92745e-06
8.24864e-06
-6.32119e-06
-1.92745e-06
8.24864e-06
-7.67801e-14
-3.85412e-06
-6.95679e-06
1.08109e-05
-3.85412e-06
-6.95679e-06
1.08109e-05
-8.72396e-15
-2.21416e-06
-2.18151e-06
4.39567e-06
-2.21416e-06
-2.18151e-06
4.39567e-06
3.63463e-14
-8.28625e-07
-8.80856e-06
9.63719e-06
-8.28625e-07
-8.80856e-06
9.63719e-06
4.47178e-14
4.7771e-06
-8.14824e-06
4.7771e-06
-8.14824e-06
-6.38151e-14
1.38451e-05
-7.55387e-06
-6.29126e-06
1.38451e-05
-7.55387e-06
-6.29126e-06
8.2752e-14
1.57831e-06
-8.33962e-06
1.57831e-06
-8.33962e-06
1.64033e-13
-9.44424e-06
3.90095e-06
5.54329e-06
-9.44424e-06
3.90095e-06
5.54329e-06
-2.82039e-14
7.04717e-06
-1.23371e-05
5.28989e-06
7.04717e-06
-1.23371e-05
5.28989e-06
7.50711e-14
2.67795e-06
-2.56264e-06
-1.15314e-07
2.67795e-06
-2.56264e-06
-1.15314e-07
7.80284e-14
1.69063e-05
8.34332e-08
-1.69898e-05
1.69063e-05
8.34332e-08
-1.69898e-05
4.47816e-14
2.40184e-06
-2.17568e-06
-2.26159e-07
2.40184e-06
-2.17568e-06
-2.2616e-07
-4.32336e-14
3.79099e-06
1.00541e-05
3.79099e-06
1.00541e-05
3.09509e-14
5.65245e-06
-8.75355e-07
5.65245e-06
-8.75355e-07
5.72874e-14
-1.32799e-06
-8.11625e-06
-1.32799e-06
-8.11625e-06
5.22808e-14
5.45832e-06
-3.88001e-06
5.45832e-06
-3.88001e-06
-3.18421e-14
-1.98365e-06
-5.57021e-06
-1.98365e-06
-5.57021e-06
2.43351e-13
-4.72949e-06
-4.72949e-06
4.02636e-14
5.8429e-06
5.8429e-06
7.63778e-13
-9.06143e-06
-9.06143e-06
-5.46004e-15
-3.14243e-05
-3.14243e-05
1.98273e-14
-1.9858e-06
-1.9858e-06
2.61059e-14
-1.04811e-06
-1.04811e-06
-4.27822e-14
-4.13614e-06
-4.13614e-06
-5.08406e-14
-3.51336e-06
-3.51336e-06
-1.05686e-13
-1.37187e-06
-1.37187e-06
-1.20417e-13
-3.79364e-06
-3.79364e-06
1.509e-13
-1.3209e-05
-1.3209e-05
3.96711e-14
-1.10517e-05
2.92736e-07
-1.10517e-05
2.92735e-07
-4.17769e-14
-2.28556e-07
-4.71233e-07
-2.28556e-07
-4.71233e-07
-2.18156e-14
-2.17962e-05
-8.76653e-06
-2.17962e-05
-8.76653e-06
3.79183e-15
-2.64514e-07
-5.96544e-07
-2.64514e-07
-5.96544e-07
-4.77141e-15
9.82496e-06
-3.30974e-08
9.82496e-06
-3.30974e-08
6.41281e-14
2.28334e-05
9.04867e-06
2.28334e-05
9.04867e-06
3.64438e-15
2.49216e-07
4.77911e-07
2.49216e-07
4.77911e-07
3.5217e-15
2.46791e-07
5.90777e-07
2.46791e-07
5.90777e-07
-4.64054e-14
3.09897e-06
3.09897e-06
-1.87683e-13
1.14687e-05
1.14687e-05
-1.49503e-13
2.02057e-06
2.02057e-06
1.65895e-13
3.85314e-06
3.85314e-06
2.71633e-14
4.91258e-07
1.5481e-05
4.91258e-07
1.5481e-05
4.7427e-14
2.00805e-06
2.49249e-07
2.00805e-06
2.49249e-07
8.7896e-15
1.1309e-05
-4.13333e-06
1.1309e-05
-4.13333e-06
6.93885e-14
2.33555e-06
8.83833e-08
2.33555e-06
8.83833e-08
-2.62063e-14
-1.10517e-05
-1.10517e-05
-1.18032e-15
-2.28556e-07
-2.28556e-07
1.29015e-14
-2.17962e-05
-2.17962e-05
3.21094e-15
-2.64514e-07
-2.64514e-07
2.62656e-14
2.28334e-05
2.28334e-05
-8.50608e-16
9.82496e-06
9.82496e-06
3.10148e-15
2.46791e-07
2.46791e-07
-7.19254e-15
2.49216e-07
2.49216e-07
5.8094e-16
-5.11955e-06
-5.11955e-06
1.86875e-14
-1.47114e-05
-1.47114e-05
-1.99704e-14
-2.87645e-06
-2.87645e-06
-1.6352e-14
-8.51884e-06
-8.51884e-06
-1.32877e-13
5.53259e-06
5.53259e-06
1.54259e-14
-1.38846e-07
-1.38846e-07
5.959e-15
-6.25739e-06
-6.25739e-06
-5.15731e-14
-1.60409e-07
-1.60409e-07
-5.73077e-14
6.24909e-06
6.24909e-06
-5.525e-14
-5.71384e-06
-5.71384e-06
-8.426e-14
1.5708e-07
1.5708e-07
-8.47329e-14
1.45109e-07
1.45109e-07
-3.97412e-14
-1.18458e-05
-1.18458e-05
-1.32447e-14
-5.54592e-07
-5.54592e-07
1.42375e-14
1.13924e-05
1.13924e-05
-8.50679e-15
1.59868e-07
1.59867e-07
6.80057e-14
-4.13729e-06
-4.01095e-06
-4.13729e-06
-4.01095e-06
7.44535e-15
3.07303e-06
-9.36428e-06
3.07303e-06
-9.36428e-06
2.30711e-13
-9.22805e-06
-9.22805e-06
1.41722e-13
-9.98295e-08
-9.98296e-08
1.39462e-14
9.0189e-06
-7.70256e-07
9.0189e-06
-7.70256e-07
3.61167e-14
2.67701e-06
1.71866e-06
2.67701e-06
1.71866e-06
5.65494e-14
8.55093e-06
2.25998e-06
8.55093e-06
2.25998e-06
2.66002e-14
4.02341e-06
5.61378e-06
4.02341e-06
5.61378e-06
1.5626e-14
7.51218e-07
7.51218e-07
-2.77918e-14
1.80155e-06
1.80155e-06
-1.17446e-16
4.46636e-06
4.46636e-06
4.79931e-14
3.98343e-06
3.98343e-06
-2.90218e-14
2.18049e-08
2.18049e-08
-2.33364e-14
5.58528e-06
5.58528e-06
-8.15464e-15
-2.35459e-07
-2.35459e-07
-4.95584e-14
4.52492e-06
4.52492e-06
5.82116e-15
-7.05322e-07
-7.05322e-07
3.852e-14
-4.20659e-06
-4.20659e-06
-2.92837e-15
-1.07303e-06
-1.07303e-06
2.88846e-14
-2.73572e-05
-2.73572e-05
-2.78899e-14
5.32983e-06
2.52329e-05
5.32983e-06
2.52329e-05
9.09794e-15
-3.86764e-08
8.99733e-07
-3.86766e-08
8.99733e-07
-1.47589e-13
1.67985e-05
1.67985e-05
-1.08344e-13
3.0603e-06
3.0603e-06
-1.72124e-14
9.04277e-08
6.09359e-07
9.04276e-08
6.09359e-07
3.80921e-14
6.5773e-06
4.1817e-06
6.5773e-06
4.1817e-06
1.65238e-14
1.04304e-05
1.04304e-05
-1.5446e-13
2.111e-06
2.111e-06
-2.5671e-16
1.10207e-05
1.10207e-05
6.73848e-14
-1.86627e-06
-1.86627e-06
3.9917e-14
1.63458e-06
1.63458e-06
1.02512e-13
-2.41078e-06
-2.41078e-06
1.70634e-14
-4.81871e-06
-4.54557e-06
-4.81871e-06
-4.54557e-06
2.812e-14
-8.91204e-06
-8.91204e-06
2.10301e-14
6.9724e-14
-1.94187e-14
-3.47664e-06
-3.47664e-06
-3.18766e-14
-7.11859e-07
-7.11859e-07
-4.08598e-14
-1.6697e-05
-1.6697e-05
-1.97867e-14
-6.97393e-07
-6.97393e-07
2.37344e-14
1.54479e-05
1.54479e-05
-1.68112e-14
7.27159e-07
7.27159e-07
-1.39539e-14
4.91534e-06
4.91534e-06
1.3298e-14
6.79159e-07
6.79159e-07
3.73059e-14
9.21517e-06
9.21517e-06
1.13413e-14
-1.93167e-06
-1.93167e-06
1.13541e-13
-1.28153e-05
-1.28153e-05
6.42055e-14
-4.93293e-06
-4.93293e-06
4.24591e-15
-3.58219e-14
2.43036e-13
-9.1342e-14
-1.49191e-13
-8.73727e-06
-8.73727e-06
-9.11704e-14
-3.91351e-06
-3.91351e-06
1.20195e-13
-9.49524e-07
-9.49524e-07
-1.66667e-13
-3.93132e-06
-3.93132e-06
-6.07495e-15
1.02504e-05
1.02504e-05
-4.96563e-15
3.93714e-07
3.93714e-07
-3.89142e-14
3.35323e-06
3.35323e-06
9.06763e-14
3.203e-06
3.203e-06
5.48611e-15
-2.19695e-07
1.02738e-05
-2.19695e-07
1.02738e-05
1.22947e-14
-2.90505e-06
2.0297e-06
-2.90505e-06
2.0297e-06
5.17971e-14
-3.35119e-06
-4.76506e-06
-3.35119e-06
-4.76506e-06
9.63671e-15
-4.891e-06
1.011e-06
-4.891e-06
1.01099e-06
-1.25621e-14
-1.07819e-05
-1.53656e-06
-1.07819e-05
-1.53656e-06
-1.15092e-14
-2.24973e-06
1.88382e-06
-2.24973e-06
1.88382e-06
9.73276e-15
-1.50889e-06
5.71459e-06
-1.50889e-06
5.71459e-06
-2.84994e-16
-2.29542e-06
2.92032e-06
-2.29542e-06
2.92032e-06
-3.18375e-14
3.14532e-06
3.14532e-06
-3.19766e-14
4.10427e-06
4.10427e-06
-6.08783e-14
1.2042e-06
1.20421e-06
4.95782e-14
-1.95716e-06
-1.95716e-06
1.02371e-14
1.00307e-05
1.00307e-05
-2.86932e-14
4.48182e-07
4.48182e-07
-6.78348e-15
-2.95747e-06
-2.95747e-06
5.60832e-14
-1.688e-06
-1.688e-06
-3.67927e-15
-9.73402e-06
-9.73402e-06
-5.07451e-14
-8.72268e-07
-8.72268e-07
-7.64395e-14
-1.11644e-05
-1.11644e-05
-4.94291e-15
-8.36239e-07
-8.36239e-07
1.39379e-15
-8.29059e-14
-7.04395e-14
-3.26954e-14
6.41125e-15
-7.65802e-14
-6.18169e-14
5.10965e-14
1.23154e-13
1.01158e-05
1.01158e-05
1.09147e-13
-1.20712e-13
-6.19138e-06
-2.52329e-05
-6.19138e-06
-2.52329e-05
-3.60355e-14
-1.08607e-06
-8.99733e-07
-1.08607e-06
-8.99733e-07
-9.13689e-14
-4.38755e-07
-6.0936e-07
-4.38755e-07
-6.0936e-07
4.61698e-14
4.55596e-08
-4.1817e-06
4.55596e-08
-4.1817e-06
-2.96924e-14
1.0476e-05
1.0476e-05
-7.71002e-14
1.67224e-06
1.67224e-06
-6.40738e-14
1.06071e-05
1.06071e-05
-6.60832e-14
1.97423e-06
1.97423e-06
-1.42589e-13
-8.08251e-14
-1.66071e-13
8.27844e-14
9.09499e-14
9.89841e-14
4.54338e-14
3.88398e-14
3.10761e-14
2.26905e-13
1.20423e-13
-1.633e-13
-4.04803e-14
-3.82074e-14
7.08904e-14
-7.31021e-14
8.27501e-13
4.3505e-06
4.3505e-06
1.36204e-13
)
;

boundaryField
{
    frontAndBack
    {
        type            empty;
        value           nonuniform 0();
    }
    movingWall
    {
        type            calculated;
        value           uniform 0;
    }
    fixedWalls
    {
        type            calculated;
        value           uniform 0;
    }
}


// ************************************************************************* //
