/*--------------------------------*- C++ -*----------------------------------*\
| =========                 |                                                 |
| \\      /  F ield         | OpenFOAM: The Open Source CFD Toolbox           |
|  \\    /   O peration     | Version:  4.1                                   |
|   \\  /    A nd           | Web:      www.OpenFOAM.org                      |
|    \\/     M anipulation  |                                                 |
\*---------------------------------------------------------------------------*/
FoamFile
{
    version     2.0;
    format      ascii;
    class       volVectorField;
    location    "0.4";
    object      U;
}
// * * * * * * * * * * * * * * * * * * * * * * * * * * * * * * * * * * * * * //

dimensions      [0 1 -1 0 0 0 0];

internalField   nonuniform List<vector> 
500
(
(-0.195717 -0.0895759 2.03467e-07)
(-0.195717 -0.0895759 -2.03467e-07)
(0.123131 -0.171593 -0.296771)
(0.123131 -0.171593 0.296771)
(-0.000336236 -0.000729603 -0.00139587)
(-0.000336236 -0.000729605 0.00139587)
(0.368507 0.0545785 0.217955)
(0.368507 0.0545785 -0.217955)
(-0.000865241 0.000494125 0.00443925)
(-0.000865242 0.000494124 -0.00443925)
(0.38029 -0.0544494 -0.246217)
(0.38029 -0.0544494 0.246217)
(-0.000762489 -0.00032919 -0.00157705)
(-0.00076249 -0.000329192 0.00157705)
(0.0978212 0.167965 0.267978)
(0.0978212 0.167965 -0.267978)
(-0.000496659 0.000860951 0.00423082)
(-0.000496661 0.000860952 -0.00423082)
(-0.187225 -0.0998355 0.000556286)
(-0.187226 -0.0998355 -0.000556286)
(-0.135816 0.127987 0.0100355)
(-0.135816 0.127987 -0.0100355)
(-0.112112 0.0528786 0.0162067)
(-0.112112 0.0528786 -0.0162067)
(-0.140793 -0.0202981 -0.000460355)
(-0.140793 -0.0202981 0.000460355)
(-0.172444 -0.185692 -0.00523495)
(-0.172444 -0.185692 0.00523495)
(-0.178717 0.0419859 0.00343865)
(-0.178717 0.0419859 -0.00343865)
(-0.197727 -0.00887282 0.00875272)
(-0.197727 -0.00887283 -0.00875272)
(-0.171398 0.0755571 0.00606218)
(-0.171398 0.0755571 -0.00606218)
(-0.181507 0.0175433 0.0107373)
(-0.181507 0.0175433 -0.0107373)
(-0.1215 0.152396 0.0114986)
(-0.1215 0.152396 -0.0114986)
(-0.0465658 0.0353469 0.0109868)
(-0.0465658 0.0353469 -0.0109868)
(-0.125943 -0.0125909 -0.000435428)
(-0.125943 -0.0125909 0.000435428)
(-0.15688 -0.200284 -0.00744299)
(-0.15688 -0.200284 0.00744299)
(-0.173831 -0.0582919 -0.000109197)
(-0.173831 -0.0582919 0.000109197)
(-0.0161935 0.0798213 0.0188123)
(-0.0161935 0.0798213 -0.0188123)
(0.778323 -0.000656217 0.00393581)
(0.778323 -0.000656218 -0.00393581)
(-0.0250293 0.00139361 0.00276924)
(-0.0250293 0.00139361 -0.00276924)
(-0.015099 -0.0540109 -0.00507324)
(-0.015099 -0.0540109 0.00507324)
(-0.0292781 0.137045 0.0227121)
(-0.0292781 0.137045 -0.0227121)
(0.657847 -0.017994 -0.00539905)
(0.657847 -0.017994 0.00539905)
(-0.0340235 0.00321074 0.00489028)
(-0.0340235 0.00321074 -0.00489028)
(-0.0198527 -0.0625684 -0.000527081)
(-0.0198527 -0.0625684 0.000527081)
(-0.159757 0.00564262 0.00723409)
(-0.159757 0.00564262 -0.00723409)
(-0.180567 -0.125866 -0.000836449)
(-0.180567 -0.125866 0.000836449)
(-0.153487 0.0745623 0.00465423)
(-0.153487 0.0745623 -0.00465423)
(-0.160863 -0.0660352 0.000275977)
(-0.160863 -0.0660352 -0.000275977)
(-0.177378 -0.0316915 0.00165185)
(-0.177378 -0.0316915 -0.00165185)
(-0.200646 0.00151141 0.00523221)
(-0.200646 0.00151139 -0.00523221)
(-0.188522 0.0321026 0.00307651)
(-0.188522 0.0321026 -0.00307651)
(-0.058326 0.208581 0.0240332)
(-0.058326 0.208581 -0.0240332)
(0.423761 -0.0517167 -0.00273622)
(0.423761 -0.0517167 0.00273622)
(-0.0528279 0.00638837 0.00354312)
(-0.0528279 0.00638837 -0.00354312)
(-0.0302653 -0.0879945 -0.00103021)
(-0.0302653 -0.0879945 0.00103021)
(-0.0258496 -0.187503 -0.0595201)
(-0.0258496 -0.187503 0.0595201)
(-0.00975747 -0.00358954 -0.00270132)
(-0.00975747 -0.00358954 0.00270132)
(0.702439 0.0404815 0.0430482)
(0.702439 0.0404815 -0.0430482)
(-0.00546166 0.0119634 0.00336871)
(-0.00546166 0.0119634 -0.00336871)
(-0.0217741 0.166482 0.059175)
(-0.0217741 0.166482 -0.059175)
(0.714009 -0.0311705 -0.0378191)
(0.714009 -0.0311705 0.0378191)
(-0.0103084 0.00350443 0.00540416)
(-0.0103084 0.00350443 -0.00540416)
(-0.00549307 -0.0117544 -0.000239081)
(-0.00549307 -0.0117544 0.000239081)
(-0.0702166 0.0912095 0.00800846)
(-0.0702166 0.0912095 -0.00800846)
(0.0235896 0.152233 0.0381258)
(0.0235896 0.152233 -0.0381258)
(-0.0841395 -0.0324938 -0.00431748)
(-0.0841395 -0.0324937 0.00431748)
(-0.145275 -0.290606 -0.0276852)
(-0.145275 -0.290606 0.0276852)
(-0.0853618 0.0780359 0.00564259)
(-0.0853618 0.0780359 -0.00564259)
(-0.0695379 0.193058 0.0403917)
(-0.0695379 0.193058 -0.0403917)
(-0.0911535 -0.0445423 -0.00347388)
(-0.0911535 -0.0445423 0.00347388)
(-0.147045 -0.263112 -0.022351)
(-0.147045 -0.263112 0.022351)
(-0.0218752 0.0922858 0.0117734)
(-0.0218752 0.0922858 -0.0117734)
(0.654938 0.00817587 0.0153586)
(0.654938 0.00817587 -0.0153586)
(-0.0381799 -0.000127677 0.000557011)
(-0.0381799 -0.000127677 -0.000557011)
(-0.0247387 -0.105953 -0.00702265)
(-0.0247387 -0.105953 0.00702265)
(-0.0912617 0.309826 0.0483843)
(-0.0912617 0.309826 -0.0483843)
(-0.0510158 0.0191741 0.00536662)
(-0.0510158 0.0191741 -0.00536662)
(0.168032 -0.126786 -0.0358818)
(0.168032 -0.126786 0.0358818)
(-0.03716 -0.0588468 -0.00113758)
(-0.03716 -0.0588468 0.00113758)
(-0.0685587 0.171244 0.0169037)
(-0.0685587 0.171244 -0.0169037)
(0.230857 0.0240196 0.00202718)
(0.230857 0.0240196 -0.00202718)
(-0.0834186 0.000524305 0.00187057)
(-0.0834186 0.000524305 -0.00187057)
(-0.0833846 -0.181186 -0.00998625)
(-0.0833846 -0.181186 0.00998625)
(-0.134235 0.0492474 0.00539411)
(-0.134235 0.0492474 -0.00539411)
(-0.172348 0.180955 0.0211355)
(-0.172348 0.180955 -0.0211355)
(-0.144414 -0.100835 -0.0061235)
(-0.144414 -0.100835 0.0061235)
(-0.140945 -0.0977255 -0.00526685)
(-0.140945 -0.0977255 0.00526685)
(0.0697689 0.21681 0.0551362)
(0.0697689 0.21681 -0.0551362)
(-0.0306558 0.0386405 0.0062195)
(-0.0306558 0.0386405 -0.0062195)
(-0.110894 -0.350905 -0.0669623)
(-0.110894 -0.350905 0.0669623)
(-0.0371359 -0.0234223 -0.00235481)
(-0.0371359 -0.0234223 0.00235481)
(-0.153691 0.207637 0.0263622)
(-0.153691 0.207637 -0.0263622)
(-0.114807 0.054089 0.00460569)
(-0.114807 0.054089 -0.00460569)
(-0.124529 -0.140332 -0.00438794)
(-0.124529 -0.140332 0.00438794)
(-0.11684 -0.0908424 -0.00269832)
(-0.11684 -0.0908424 0.00269832)
(-0.186732 0.115645 0.0117772)
(-0.186732 0.115645 -0.0117772)
(-0.191532 -0.089695 0.000625014)
(-0.191532 -0.0896951 -0.000625014)
(-0.178512 0.0993875 0.0118523)
(-0.178512 0.0993875 -0.0118523)
(-0.198418 -0.116181 -0.0033318)
(-0.198418 -0.116181 0.0033318)
(0.833947 0.00431057 0.00897445)
(0.833947 0.00431057 -0.00897445)
(-0.00807922 0.037983 0.00723676)
(-0.00807922 0.037983 -0.00723676)
(-0.0179357 -0.000937841 0.000405297)
(-0.0179357 -0.000937842 -0.000405297)
(-0.0118896 -0.0668804 -0.00853572)
(-0.0118896 -0.0668804 0.00853572)
(-0.0979499 0.146623 0.00853347)
(-0.0979499 0.146623 -0.00853347)
(0.0426821 0.0486158 0.0158051)
(0.0426821 0.0486158 -0.0158051)
(-0.105481 -0.013468 0.00169814)
(-0.105481 -0.013468 -0.00169814)
(-0.136224 -0.227155 -0.0120622)
(-0.136224 -0.227155 0.0120622)
(-0.0501882 -0.297948 -0.0777695)
(-0.0501882 -0.297948 0.0777695)
(-0.0109441 -0.00505376 -0.00348002)
(-0.0109441 -0.00505376 0.00348002)
(0.49184 0.0867591 0.05541)
(0.49184 0.0867591 -0.05541)
(-0.00694997 0.0127676 0.00245987)
(-0.00694998 0.0127676 -0.00245987)
(-0.0442159 0.264636 0.0738303)
(-0.0442159 0.264636 -0.0738303)
(0.521485 -0.0760483 -0.0539801)
(0.521485 -0.0760483 0.0539801)
(-0.0114861 0.00496329 0.00605122)
(-0.0114861 0.00496329 -0.00605122)
(-0.00681306 -0.0120652 0.000520033)
(-0.00681306 -0.0120652 -0.000520033)
(-0.0368904 0.0616289 0.00467901)
(-0.0368904 0.0616289 -0.00467901)
(0.152359 0.134035 0.0547931)
(0.152359 0.134035 -0.0547931)
(-0.051749 -0.0216377 -0.00261215)
(-0.051749 -0.0216377 0.00261215)
(-0.10809 -0.336458 -0.0443099)
(-0.10809 -0.336458 0.0443099)
(-0.102859 0.323643 0.0687877)
(-0.102859 0.323643 -0.0687877)
(-0.0370532 0.021958 0.0056435)
(-0.0370532 0.021958 -0.0056435)
(0.0919553 -0.210122 -0.0450088)
(0.0919553 -0.210122 0.0450088)
(-0.0295902 -0.0376093 -0.00228692)
(-0.0295902 -0.0376093 0.00228692)
(-0.00614586 -0.227519 -0.109608)
(-0.00614585 -0.227519 0.109608)
(-0.00245457 -0.00168081 -0.0022265)
(-0.00245457 -0.00168081 0.0022265)
(0.63856 0.0388303 0.0685656)
(0.63856 0.0388303 -0.0685656)
(-0.00208516 0.00298326 0.00276992)
(-0.00208516 0.00298326 -0.00276992)
(0.657857 -0.0347899 -0.0759186)
(0.657857 -0.0347899 0.0759186)
(-0.00900328 0.20372 0.0993325)
(-0.00900328 0.20372 -0.0993325)
(-0.00203927 -0.00266689 -0.000302212)
(-0.00203926 -0.00266689 0.000302212)
(-0.00281024 0.00174593 0.00458742)
(-0.00281024 0.00174592 -0.00458742)
(-0.0390145 0.132664 0.0115616)
(-0.0390145 0.132664 -0.0115616)
(0.381753 0.0356311 0.0147336)
(0.381753 0.0356311 -0.0147336)
(-0.0656661 -0.000873984 0.00126244)
(-0.0656661 -0.000873984 -0.00126244)
(-0.0581176 -0.178157 -0.012442)
(-0.0581176 -0.178157 0.012442)
(-0.0125121 -0.401869 -0.168301)
(-0.0125121 -0.401869 0.168301)
(-0.00357908 -0.00232799 -0.00269069)
(-0.00357908 -0.00232799 0.00269069)
(0.268064 0.108727 0.118797)
(0.268064 0.108727 -0.118797)
(-0.0025752 0.00404634 0.00372826)
(-0.0025752 0.00404633 -0.00372826)
(0.29973 -0.108335 -0.132526)
(0.29973 -0.108335 0.132526)
(-0.0243265 0.371223 0.153595)
(-0.0243265 0.371223 -0.153595)
(-0.00247397 -0.00363103 -0.000568522)
(-0.00247397 -0.00363103 0.000568522)
(-0.0039981 0.00255596 0.0057847)
(-0.0039981 0.00255596 -0.0057847)
(-0.0608225 0.267163 0.0529544)
(-0.0608225 0.267163 -0.0529544)
(-0.0451863 0.0388509 0.00526244)
(-0.0451863 0.0388509 -0.00526244)
(-0.0649035 -0.275676 -0.0487284)
(-0.0649035 -0.275676 0.0487284)
(-0.0449441 -0.0386777 -0.00205769)
(-0.0449441 -0.0386777 0.00205769)
(-0.139889 0.0296785 0.00437801)
(-0.139889 0.0296785 -0.00437801)
(-0.162731 0.176233 0.0169058)
(-0.162731 0.176233 -0.0169058)
(-0.152193 -0.123794 -0.00619073)
(-0.152193 -0.123794 0.00619073)
(-0.124031 -0.0460612 -0.00276169)
(-0.124031 -0.0460612 0.00276169)
(-0.0864641 0.198192 0.0175598)
(-0.0864641 0.198192 -0.0175598)
(-0.0857581 0.00712117 0.00259063)
(-0.0857581 0.00712117 -0.00259063)
(0.200465 -0.00331608 0.00270897)
(0.200465 -0.00331608 -0.00270897)
(-0.0841065 -0.160864 -0.010006)
(-0.0841065 -0.160864 0.010006)
(-0.0771761 0.220475 0.0160077)
(-0.0771761 0.220475 -0.0160077)
(-0.0704389 0.010512 0.00230329)
(-0.0704389 0.010512 -0.00230329)
(0.271945 -0.0377537 0.0112477)
(0.271945 -0.0377537 -0.0112477)
(-0.0524723 -0.122134 -0.00427162)
(-0.0524723 -0.122134 0.00427162)
(-0.0422467 0.0110291 0.00564596)
(-0.0422467 0.0110291 -0.00564596)
(-0.0611932 0.260397 0.0377343)
(-0.0611932 0.260397 -0.0377343)
(-0.0248399 -0.0551596 -0.00181765)
(-0.0248399 -0.0551596 0.00181765)
(0.374127 -0.0573243 -0.0155873)
(0.374127 -0.0573243 0.0155873)
(-0.0223181 0.00589019 0.00586208)
(-0.0223181 0.00589019 -0.00586208)
(-0.0371575 0.200613 0.0439266)
(-0.0371575 0.200613 -0.0439266)
(-0.0106098 -0.0289735 0.000207842)
(-0.0106098 -0.0289735 -0.000207842)
(0.613864 -0.0348738 -0.0129679)
(0.613864 -0.0348738 0.0129679)
(0.60473 0.041542 0.0270777)
(0.60473 0.041542 -0.0270777)
(-0.00986302 0.0289749 0.00300935)
(-0.00986302 0.0289749 -0.00300935)
(0.353243 0.0642016 0.0320993)
(0.353243 0.0642016 -0.0320993)
(-0.0236664 0.0588127 0.00445853)
(-0.0236664 0.0588127 -0.00445853)
(-0.0216572 -0.00593127 -0.00295246)
(-0.0216572 -0.00593128 0.00295246)
(-0.0452862 -0.220442 -0.0402746)
(-0.0452862 -0.220442 0.0402746)
(-0.0752857 -0.282472 -0.0322508)
(-0.0752857 -0.282472 0.0322508)
(-0.0439316 -0.0121766 -0.00297889)
(-0.0439316 -0.0121766 0.00297889)
(-0.14338 0.191163 0.0163384)
(-0.14338 0.191163 -0.0163384)
(-0.0450729 -0.0282196 0.00348375)
(-0.0450729 -0.0282196 -0.00348375)
(-0.124978 0.0158692 0.00359168)
(-0.124978 0.0158692 -0.00359168)
(-0.132156 -0.153732 -0.0052912)
(-0.132156 -0.153732 0.0052912)
(-0.175877 0.125928 0.0128538)
(-0.175877 0.125928 -0.0128538)
(-0.163389 0.015346 0.00436048)
(-0.163389 0.015346 -0.00436048)
(-0.165505 0.118074 0.0113746)
(-0.165505 0.118074 -0.0113746)
(-0.164379 -0.00621196 0.00209338)
(-0.164379 -0.00621196 -0.00209338)
(0.146311 0.205151 0.0570597)
(0.146311 0.205151 -0.0570597)
(-0.0161671 0.0234208 0.00417408)
(-0.0161671 0.0234208 -0.00417408)
(-0.0964299 -0.362771 -0.0668171)
(-0.0964299 -0.362771 0.0668171)
(-0.0217227 -0.0130478 -0.00193587)
(-0.0217227 -0.0130478 0.00193587)
(-0.0930352 0.331132 0.0679408)
(-0.0930352 0.331132 -0.0679408)
(-0.0221607 0.0127613 0.00465737)
(-0.0221607 0.0127613 -0.00465737)
(0.178841 -0.203116 -0.053533)
(0.178841 -0.203116 0.053533)
(-0.0158204 -0.0224626 -0.00101023)
(-0.0158204 -0.0224626 0.00101023)
(-0.14505 0.118575 0.0226637)
(-0.14505 0.118575 -0.0226637)
(-0.131675 0.100094 0.00894481)
(-0.131675 0.100094 -0.00894481)
(-0.181723 -0.186086 -0.0107113)
(-0.181723 -0.186086 0.0107113)
(-0.137795 -0.0446353 -0.000950133)
(-0.137795 -0.0446353 0.000950133)
(-0.124942 0.178133 0.0293636)
(-0.124942 0.178133 -0.0293636)
(-0.107537 0.0841924 0.00544003)
(-0.107537 0.0841924 -0.00544003)
(-0.165683 -0.208161 -0.0175951)
(-0.165683 -0.208161 0.0175951)
(-0.115414 -0.0553347 -0.00232611)
(-0.115414 -0.0553347 0.00232611)
(-0.0937026 0.254775 0.0400595)
(-0.0937026 0.254775 -0.0400595)
(-0.0698578 0.0519617 0.00666931)
(-0.0698578 0.0519617 -0.00666931)
(-0.0998765 -0.252245 -0.0308935)
(-0.0998765 -0.252245 0.0308935)
(-0.0689143 -0.0540417 -0.0028351)
(-0.0689143 -0.0540417 0.0028351)
(-0.130114 0.213608 0.0160582)
(-0.130114 0.213608 -0.0160582)
(0.0351127 -0.0401631 -0.00207807)
(0.0351127 -0.0401631 0.00207807)
(-0.106891 0.0163198 0.00150491)
(-0.106891 0.0163198 -0.00150491)
(-0.112304 -0.148344 -0.00240837)
(-0.112304 -0.148344 0.00240837)
(-0.140535 0.240379 0.0213418)
(-0.140535 0.240379 -0.0213418)
(-0.0998677 0.043867 0.00434789)
(-0.0998677 0.043867 -0.00434789)
(-0.0666244 -0.145594 -0.00501747)
(-0.0666244 -0.145594 0.00501747)
(-0.0984985 -0.0920498 -0.000897589)
(-0.0984985 -0.0920498 0.000897589)
(-0.114101 0.291478 0.0294869)
(-0.114101 0.291478 -0.0294869)
(-0.0686341 0.0266543 0.00365356)
(-0.0686341 0.0266543 -0.00365356)
(0.0764512 -0.141348 -0.0135678)
(0.0764512 -0.141348 0.0135678)
(-0.0549747 -0.0766908 -0.00160932)
(-0.0549747 -0.0766908 0.00160932)
(-0.0726673 0.11567 0.0101563)
(-0.0726673 0.11567 -0.0101563)
(0.0936513 0.0810039 0.02704)
(0.0936513 0.0810039 -0.02704)
(-0.0911913 -0.0196507 0.000102552)
(-0.0911913 -0.0196507 -0.000102552)
(-0.123973 -0.263676 -0.0212062)
(-0.123973 -0.263676 0.0212062)
(-0.126534 0.247521 0.0205705)
(-0.126534 0.247521 -0.0205705)
(-0.0956418 0.0268579 0.00289229)
(-0.0956418 0.0268579 -0.00289229)
(0.0362379 -0.0888749 -0.0040913)
(0.0362379 -0.0888749 0.0040913)
(-0.0906535 -0.116679 -0.00304893)
(-0.0906535 -0.116679 0.00304893)
(0.0504685 0.252801 0.0746783)
(0.0504685 0.252801 -0.0746783)
(-0.0108296 0.0128459 0.0049925)
(-0.0108296 0.0128459 -0.0049925)
(-0.057854 -0.353811 -0.0909565)
(-0.057854 -0.353811 0.0909565)
(-0.0125012 -0.00952053 -0.00135832)
(-0.0125012 -0.00952053 0.00135832)
(-0.0722623 0.328751 0.0884476)
(-0.0722623 0.328751 -0.0884476)
(0.0807597 -0.263114 -0.0770821)
(0.0807597 -0.263114 0.0770821)
(-0.0131585 0.00986311 0.00427255)
(-0.0131585 0.00986311 -0.00427255)
(-0.0104382 -0.012146 -0.00197218)
(-0.0104382 -0.012146 0.00197218)
(-0.110484 0.260218 0.0216566)
(-0.110484 0.260218 -0.0216566)
(-0.0837195 0.0230464 0.00275592)
(-0.0837195 0.0230464 -0.00275592)
(0.0926987 -0.0807759 -0.00709698)
(0.0926987 -0.0807759 0.00709698)
(-0.0726602 -0.109833 -0.00242275)
(-0.0726602 -0.109833 0.00242275)
(-0.200034 0.0489959 0.00805944)
(-0.200034 0.0489959 -0.00805944)
(-0.192716 0.094882 0.0121177)
(-0.192716 0.094882 -0.0121177)
(0.693917 0.0213836 0.0189256)
(0.693917 0.0213835 -0.0189256)
(-0.00880451 0.0472814 0.00425105)
(-0.00880451 0.0472814 -0.00425105)
(-0.0282805 -0.00148478 -0.00164322)
(-0.0282805 -0.00148477 0.00164322)
(-0.0244469 -0.137865 -0.0163377)
(-0.0244469 -0.137865 0.0163377)
(-0.0598072 -0.231245 -0.0220995)
(-0.0598072 -0.231245 0.0220995)
(-0.0506331 -0.00646148 1.2214e-05)
(-0.0506331 -0.00646148 -1.2214e-05)
(0.422239 0.0489523 0.0182237)
(0.422239 0.0489523 -0.0182237)
(-0.0224009 0.0778107 0.00701589)
(-0.0224009 0.0778108 -0.00701589)
(0.85394 0.0126004 0.0156197)
(0.85394 0.0126004 -0.0156197)
(-0.00311481 0.0163279 0.00193912)
(-0.00311481 0.0163279 -0.00193912)
(-0.0106794 -0.00115201 -0.00193643)
(-0.0106794 -0.00115201 0.00193643)
(-0.0123923 -0.0815863 -0.0177303)
(-0.0123923 -0.0815863 0.0177303)
(-0.0115426 0.079168 0.0226119)
(-0.0115426 0.079168 -0.0226119)
(0.848589 -0.00809456 -0.00405406)
(0.848589 -0.00809456 0.00405406)
(-0.0117048 0.00195779 0.00389187)
(-0.0117048 0.00195779 -0.00389187)
(-0.00584004 -0.0183644 0.000179828)
(-0.00584004 -0.0183644 -0.000179828)
(-0.0398284 0.105677 0.00911359)
(-0.0398284 0.105677 -0.00911359)
(0.30955 0.0496971 0.0142557)
(0.30955 0.0496971 -0.0142557)
(-0.0671387 -0.00870593 -0.000115547)
(-0.0671387 -0.00870593 0.000115547)
(-0.07923 -0.235675 -0.0172798)
(-0.07923 -0.235675 0.0172798)
(-0.119666 0.267962 0.0269438)
(-0.119666 0.267962 -0.0269438)
(-0.0794986 0.0422515 0.00394299)
(-0.0794986 0.0422515 -0.00394299)
(-0.0483723 -0.184656 -0.0157704)
(-0.0483723 -0.184656 0.0157704)
(-0.0737471 -0.0718125 -0.00284019)
(-0.0737471 -0.0718125 0.00284019)
(-0.19851 -0.0309415 0.00387068)
(-0.19851 -0.0309415 -0.00387068)
(-0.188574 -0.00729012 0.0022343)
(-0.188574 -0.0072901 -0.0022343)
)
;

boundaryField
{
    frontAndBack
    {
        type            empty;
    }
    movingWall
    {
        type            fixedValue;
        value           uniform (1 0 0);
    }
    fixedWalls
    {
        type            noSlip;
    }
}


// ************************************************************************* //
