/*--------------------------------*- C++ -*----------------------------------*\
| =========                 |                                                 |
| \\      /  F ield         | OpenFOAM: The Open Source CFD Toolbox           |
|  \\    /   O peration     | Version:  4.1                                   |
|   \\  /    A nd           | Web:      www.OpenFOAM.org                      |
|    \\/     M anipulation  |                                                 |
\*---------------------------------------------------------------------------*/
FoamFile
{
    version     2.0;
    format      ascii;
    class       volScalarField;
    location    "9";
    object      T;
}
// * * * * * * * * * * * * * * * * * * * * * * * * * * * * * * * * * * * * * //

dimensions      [0 0 0 1 0 0 0];

internalField   nonuniform List<scalar> 
26625
(
6.76425e-07
0.042212
1.40212
1.39198
1.9091e-08
4.80137e-06
0.000327377
2.3856e-06
0.201637
1.53153
2.503e-13
0.362309
-8.98575e-08
0.16398
1.35535
4.42468e-08
0.0317136
1.48601
1.59835
1.01814
-3.39528e-05
0.000883353
3.33344e-13
0.101891
-6.63608e-07
1.33051
0.220938
0.0141034
1.76055e-06
0.170209
1.54405
0.99642
0.124495
0.971111
-1.26855e-09
-1.82253e-10
0.00144927
1.43164
0.025022
0.0156858
0.0303403
1.46252
0.2427
0.715177
1.14441e-05
0.910965
0.00305212
1.59036
0.0038937
-2.6883e-12
1.37273
0.996835
0.61899
-3.75268e-07
0.992297
0.144805
0.438653
1.14417
0.000685072
1.48858
-3.65383e-18
-3.73281e-08
3.19708e-07
0.0854481
1.43608
1.75622e-15
0.655682
1.54158
0.0179093
0.15659
1.43013
6.65605e-12
0.00655193
-6.2976e-09
6.57315e-14
0.570641
4.49313e-11
9.63834e-17
0.948107
1.6447
0.947409
0.0198046
0.469592
1.30376
0.221809
1.5569
-1.62788e-09
3.144e-16
0.00459649
0.344731
1.97647
1.46904
0.2358
0.273156
0.991017
0.388679
1.01852
1.19784
0.400376
0.970415
0.644382
1.53419
1.51509
1.39511
2.06552e-06
1.0382
-8.50955e-15
1.38761
0.972646
-2.62607e-07
1.18561
0.00036737
0.175814
1.38413
1.36718
1.51331
6.45095e-12
-3.91472e-10
0.0107956
1.46895
1.40472
1.14911
-9.55937e-12
0.00142983
1.55796e-05
1.48548
0.907238
1.82995e-17
0.88553
1.143
1.42326
0.936975
0.37297
-2.18557e-06
-7.06579e-05
0.471016
0.19861
-4.65521e-16
0.515448
2.65609e-05
1.16933
1.50673
-7.20998e-06
0.127293
1.59684
1.26904
1.10778
1.56985
0.0505676
1.80936e-16
1.08219
1.01715
1.29211
0.0162476
-5.3998e-18
0.895892
0.919372
1.51421
0.984124
1.52566
0.0201412
1.03997
0.994249
1.21372
7.74353e-13
-3.86267e-06
1.56389
0.873847
0.00485791
1.07368e-12
0.601796
1.94748e-12
0.0252474
0.66905
1.96565e-17
1.67911
0.854727
0.0251764
1.32081
5.4814e-13
0.00194596
0.000327302
-6.2861e-13
1.3957
0.0432469
0.857889
0.100808
0.949858
1.62186
0.768976
0.633763
0.9717
1.18918
1.45244
0.832521
8.2618e-08
0.911689
-0.00014253
1.50943
5.94895e-11
0.00256672
1.46701
-1.556e-12
0.0532253
-5.86254e-12
0.974827
1.78604
1.4918
0.000211731
0.7881
-3.92099e-14
0.78075
-3.03571e-08
1.0252
-2.88196e-06
0.985658
-0.0521514
0.0056356
0.0364456
1.02863
1.46759
-1.13542e-13
4.02043e-14
0.00174972
0.0758921
1.46741
3.53782e-10
0.91028
0.0918239
0.208157
1.36281
0.0374482
1.42664
0.0205622
3.25739e-13
0.0520207
1.40442
0.0761266
4.86485e-13
0.559832
0.903231
1.14168
1.34796
3.98998e-12
1.06671
0.0906954
0.00322275
-2.70731e-11
4.30513e-13
1.05417
1.57009
0.00677171
-5.28625e-06
0.658671
0.0139297
0.00116755
-5.13038e-16
-1.27485e-06
0.11496
0.676826
-2.18495e-07
1.71998
0.562445
0.0883504
1.36695
1.48465
-1.35366e-11
3.72812e-10
0.0021484
1.39562
0.168331
1.51622
1.26808
0.0833044
0.340485
-4.45418e-15
0.728132
1.15927
0.856132
0.00725446
0.00335176
8.38166e-14
1.09701
0.815649
0.757349
1.19398e-11
1.26006
-1.95485e-08
1.52968
0.000660978
-4.35256e-14
-2.79097e-05
1.28548
0.486902
0.433372
6.89534e-16
-2.75719e-17
0.824433
-6.25287e-12
1.42704
0.830965
-1.84228e-07
1.46081
9.1764e-08
0.113125
7.82049e-18
8.31685e-11
2.669e-05
-1.08706e-14
0.0010843
0.0010318
-9.45557e-21
1.56173e-17
1.23267
0.921328
0.279134
0.218569
0.00116894
1.67258
0.61932
-1.03271e-17
0.248203
0.0029384
0.000968288
6.18453e-16
0.153697
0.945107
1.54085
0.0613937
0.0577995
0.00201191
-4.90486e-06
0.890888
1.21318
1.07129
0.00116843
0.829744
0.00515244
8.5936e-18
0.827379
1.62754
0.636175
0.968761
0.0821871
0.531446
1.11298
0.954052
0.361304
0.00077167
-3.37935e-05
1.52245
0.00933775
0.0531984
1.69458
0.0654054
1.00124
0.617395
1.57962
1.17519
1.63162
1.04876
3.60722e-13
0.026438
0.0124306
1.47959
0.335332
0.250233
1.64914
1.03784
0.147211
1.57882
1.40825
0.347315
-1.77339e-12
-2.4161e-07
0.960436
0.161257
-8.22128e-15
2.85598e-16
1.54114
1.01537
1.01877
0.617751
0.258036
0.137475
-0.0371783
1.00451
0.0798089
0.0116176
0.0602658
-4.44574e-15
2.1523e-06
0.0360726
1.63795
0.0188106
1.58252
1.61083
0.0391433
0.934354
1.11132
1.08282
1.01545
1.48211
2.10686e-11
-1.24122e-07
0.107217
1.27317
2.17974e-05
0.00218377
0.840315
1.18302
1.645
-1.59595e-08
-3.47209e-12
0.0925984
1.3768
0.146162
1.2208
1.39128
-6.51452e-10
3.79719e-14
4.53209e-09
1.53595
1.07326
0.00233056
5.13165e-06
1.00125
0.013114
2.33517e-12
0.431742
1.59306
1.10961
0.0252646
1.96431e-11
1.29968
1.00138
-2.19416e-15
0.16222
0.00050059
1.62992
0.182033
-4.12148e-11
0.51398
0.885442
1.4271
0.000653998
7.43045e-18
1.3484
0.0089586
1.45904
-0.064102
0.827571
-1.1079e-12
1.08742
0.00027405
0.000918752
0.0861981
-1.52314e-13
4.90735e-06
1.3387
1.00436
1.55478
6.92205e-06
1.13143
-0.000190525
0.514022
8.89499e-18
0.48293
0.82765
1.42919e-15
-4.13469e-11
1.90764
0.0451692
0.349766
-0.00429129
8.47889e-10
0.923126
0.225738
0.940423
1.16066e-14
1.50984
-3.62462e-08
1.40885
1.81654e-12
0.00401498
0.00218311
0.522316
0.807712
0.739114
-7.21925e-08
1.27634
0.974535
-6.46325e-08
1.30753
-3.51157e-12
1.55648
1.48334
1.56483
0.894658
2.63459e-06
1.54679
1.20421
1.35474
0.892083
1.02757
-1.64228e-13
0.0961939
0.963854
1.11853
5.37718e-07
0.750194
1.1206
1.37349
1.35914
1.21963e-07
4.67182e-11
0.108209
0.00112644
-6.10781e-06
0.891809
1.00698
1.69874
2.61061e-17
0.00512915
0.0457041
3.69575e-12
0.926938
0.774254
0.207351
-6.52669e-07
2.63492e-07
1.41276
1.7693
0.0919237
0.967672
0.996399
1.3788
0.432137
1.1972
6.03189e-07
0.0667072
1.20728
-1.57316e-12
1.53569
0.0636701
0.336992
0.00494866
-0.000276215
-4.7159e-08
1.08825e-09
1.07733
-5.06574e-07
1.40859
0.00437982
0.000576448
-0.0743577
1.02957
0.210793
1.69476
0.908166
0.0825494
0.0182523
1.10544
1.41172
0.00431407
1.14066
7.5411e-13
0.706475
1.4716
1.72126e-11
1.48095e-05
6.53838e-07
1.66321
1.31665
0.87338
1.45056
9.65182e-16
0.918816
8.59106e-11
0.00879185
2.09013e-12
1.00982
0.018889
1.37459
0.0846536
7.76891e-05
0.117663
0.0019515
0.76009
0.0169864
0.0280841
1.2669
0.0134311
-5.73205e-15
0.00040049
1.35131
0.854067
0.528621
0.496695
0.00034164
-4.5435e-10
0.207208
0.954586
0.953428
-3.60924e-13
0.105789
1.61408
0.101995
1.04877
0.000747582
1.15164
1.2113
-0.000233892
1.04929
1.31537
0.0941938
0.673066
1.30301
5.1019e-07
1.222
0.747112
-1.63343e-10
0.113628
0.87198
-0.033414
1.49625
0.000788567
1.83088
0.474022
-0.0713034
8.63439e-13
0.0814113
0.260409
-0.000365942
0.000432947
6.26351e-12
0.0667698
0.121684
0.31618
1.09205
-2.49829e-12
2.16723e-06
0.958323
-1.16328e-06
0.125022
1.48917
0.0027087
0.0602636
-1.33203e-06
2.27545e-12
0.955189
0.000233946
7.34651e-11
1.28144
1.54761
1.64267
0.00220433
0.140471
1.40893
1.12333
-4.2486e-09
0.0157841
1.39205
-4.70761e-08
1.04176
-0.139999
1.20741
1.84618
0.916232
-8.23227e-12
0.182044
0.952485
5.08883e-10
1.30712
6.82664e-17
6.2198e-11
1.02697
1.55647
0.00372606
-4.73456e-09
1.431
-9.21716e-07
0.123538
-1.40516e-11
-0.000285718
-1.34283e-14
1.55979
0.000240577
0.804877
0.0154351
-8.17284e-12
-3.04202e-18
5.05215e-06
-7.78567e-05
-7.21649e-12
-3.04047e-07
0.00589774
1.18281
0.0320585
0.350132
0.00729927
0.147057
9.63682e-06
0.207631
-3.81051e-16
1.11376
-5.98418e-09
0.766208
0.392147
0.954974
-1.74954e-15
1.6512
6.85548e-09
1.42259e-16
-5.46676e-16
-3.73928e-10
1.97139e-16
1.18682
1.79934
0.247704
-9.77176e-05
1.47604
0.189948
3.69246e-18
1.48918
1.22841
-1.28107e-14
1.55423
0.000417049
0.708806
-1.19841e-05
-4.91179e-05
0.213382
0.109973
1.20666e-11
1.47941
1.53625
0.589359
0.86127
-3.44184e-11
0.123261
0.162418
1.21152
0.302827
0.000628327
-8.82156e-16
1.01848
0.712814
0.93283
0.980853
0.616474
1.07004
1.50416
1.71784e-09
0.0068285
0.210548
-4.38968e-06
0.0760718
0.969099
1.48119
5.34889e-09
0.0021235
1.26595
0.212823
6.55979e-05
0.788569
8.80312e-15
8.56747e-12
1.06648
-9.03839e-12
-2.99491e-07
-5.39308e-07
1.60325
1.57282
-1.16754e-12
1.50869
-7.85561e-07
0.492083
-1.23633e-07
1.94117
1.02707
-2.39763e-07
0.937136
0.477965
1.0695
0.000112011
0.0113112
0.0442651
8.88385e-09
0.0637006
1.68622
0.0752073
0.364577
0.146291
1.41493
1.477
1.21278
1.38253
0.00412587
0.15098
0.656053
0.409202
1.46098
0.085428
1.05794
1.58228
0.0723737
0.500216
7.20362e-16
0.00501796
-2.59238e-13
1.19417e-09
1.71531
0.226698
7.52397e-10
0.0071411
-1.08442e-11
0.107632
0.402793
0.721422
0.0285895
7.65719e-18
-7.01831e-13
1.42932
0.224299
-1.5211e-13
1.05964
1.06089
7.05739e-08
0.543791
-0.0275968
0.000354185
1.70325
1.54941
1.12922
1.53075e-10
0.00317846
1.46378
1.25145
-9.59309e-11
0.0208537
2.45902e-10
0.555776
0.00562712
0.90563
7.81913e-07
-2.13524e-07
1.42778
-0.0110048
-1.59127e-11
1.49073
0.667386
1.52226
1.40634e-09
-2.56506e-17
1.82961
0.0552007
6.12538e-05
0.113013
0.127788
1.4321
-0.00434195
-3.41957e-11
7.05851e-05
0.00158404
0.0165885
0.589731
1.12086
1.43051e-13
1.46538
7.05164e-14
0.962841
2.46815e-06
4.73847e-08
0.949589
0.000938858
1.59156
-6.47085e-18
0.999978
0.240961
0.000467015
-5.55693e-06
0.000739034
1.49215
0.258033
0.00704567
0.312485
0.436368
-8.47348e-14
0.00447328
7.63496e-11
0.0374957
4.22963e-13
0.0033418
2.3578e-11
1.37087e-06
0.142375
1.44793
1.02529
0.00303
0.280921
-4.96317e-13
1.15431e-10
1.54792
1.1415
4.41322e-05
-5.5396e-07
-0.0602123
-4.62986e-14
0.393396
0.00026489
0.199315
-5.567e-11
5.30099e-18
0.123177
0.8779
-4.54055e-15
0.00028445
5.82307e-05
1.39862
1.04114
0.244217
-7.11074e-15
0.200804
-4.06788e-16
0.221458
0.683389
0.181994
0.155581
0.0210628
0.0033188
-3.46534e-13
0.00518387
1.53105
1.37953
0.00121969
4.31529e-12
-0.00541056
2.98479e-17
0.739459
1.53558
0.282692
0.0780754
0.0713033
-4.03429e-11
0.00175501
1.36636
0.0896248
0.693316
5.64032e-15
1.31498
-1.23407e-14
0.44008
1.28295
0.0607859
9.86817e-10
6.83133e-09
1.08835e-10
1.34915
1.00821
0.847654
0.00987678
6.41801e-09
1.2443
1.00106
0.984017
8.98874e-05
-2.90865e-11
-7.10151e-16
0.990423
-9.48041e-06
1.37616
0.00773883
0.00384571
0.859734
0.000364416
-6.42868e-05
0.975116
4.36773e-14
0.0172363
0.460654
1.01744
1.0654
1.4656e-06
-2.92159e-08
1.375
-1.54013e-12
-7.81184e-12
0.00225367
6.4637e-15
1.10067
1.53034
-1.35438e-07
0.00758082
2.4659e-07
0.0014995
0.301994
0.0796047
-0.00187758
-8.73472e-13
0.0152315
0.869628
1.01321e-07
0.002384
0.0953501
0.749529
1.61626
0.197751
1.02179
-7.37922e-06
-1.08932e-10
0.00301063
1.38162
1.4686
-1.67558e-11
0.0829313
1.10481
1.03765e-14
0.968115
2.76307e-08
5.37482e-08
0.190525
0.747029
1.81396
0.996369
-7.96466e-08
0.0193617
0.993709
1.48999
0.274781
0.443926
0.642871
1.50452
1.00111
-1.77529e-12
0.213075
0.0450794
-5.00185e-08
0.0237288
0.00981447
-1.63606e-06
0.999105
1.00621
0.0188147
1.2286e-14
0.547022
0.01139
0.0266643
0.00110525
0.473026
0.0224181
0.00081661
-3.7223e-08
1.64464
1.05822e-17
-0.00553809
-1.00323e-11
1.46412
1.48634
1.47413
1.46612
-1.78062e-11
0.556589
4.21697e-13
1.08804e-14
1.25343
0.120831
4.2415e-05
0.0243058
1.40179
1.37258
0.273131
0.527439
1.75017
2.32622e-05
1.64692
1.45936e-09
0.664645
1.4473
1.28736
-0.000157248
7.51274e-13
0.111081
6.34424e-12
1.50516
-4.90493e-16
0.975423
0.249988
0.000206553
-4.30397e-13
0.0697725
0.817496
0.00343533
0.000821384
0.843677
-1.10069e-11
1.05587
1.3848
0.890955
1.49103
1.29872
0.54961
-4.26703e-12
-0.000214783
1.41953
-2.24813e-12
1.60798
1.30971
0.00096545
-1.50738e-11
1.05535
1.50452
0.540484
1.39099
0.865292
1.44665
1.41498
1.8169e-11
3.05851e-11
1.33686
1.01514
0.00581993
1.25526
-2.95912e-07
-6.53497e-13
9.0091e-15
-1.39384e-07
1.47332
1.26981
-4.32761e-05
0.0183143
-7.89379e-15
0.112205
0.0105481
8.44993e-13
1.12485
0.0325148
0.217523
1.12171
0.266919
1.13051
2.03411
1.51467
0.995001
0.0191271
-4.46789e-08
1.19322
1.7953
-3.47345e-16
0.0411756
0.0443017
1.49422
0.804296
0.000339874
-5.97847e-16
0.0121857
1.70856
1.049
-0.0606347
1.31337
1.83093
0.913417
0.956225
1.4956
0.0101878
1.46971e-14
1.00923
1.53479
0.00904831
1.71503
0.809273
8.64894e-09
1.55168
-0.000364759
1.77685e-05
0.00617641
1.01022
-0.00432916
1.22116
9.45694e-09
1.19045
-0.00450315
6.72091e-08
0.771434
0.522283
1.13237
1.48153
0.637883
1.94758
0.0335437
1.35279e-15
0.000177451
1.49766
0.299757
0.961178
0.13206
4.80565e-10
4.32302e-16
1.92542e-07
0.0133355
0.105879
-0.000411444
4.79044e-11
0.746745
0.00022517
1.176
-8.95601e-08
0.0274996
0.910239
0.0245074
1.33438
1.95886
4.93272e-13
-7.06657e-18
-2.1658e-06
0.254098
0.460981
0.00419927
0.158502
1.64223
1.13493
0.158481
1.62297
1.48739
1.61257
-6.25647e-09
0.0160157
0.936601
-0.000133527
3.12204e-10
0.18973
0.105411
0.0323055
1.61749
0.0344649
1.53044
-0.000137436
1.75371
1.58688
1.60486
1.47133
2.80531e-16
-0.217825
1.17723
-1.04273e-14
-0.000208577
1.80665e-05
0.419698
0.0221822
2.68972e-05
0.0532606
0.227073
0.0126965
-1.12655e-18
1.05378
0.235675
1.66834
1.48157
1.46567
0.177462
1.79493
0.00592974
3.59704e-06
-1.56922e-09
2.32885e-18
0.000729686
0.0111081
0.0668948
0.104834
6.69322e-18
0.99461
-4.59419e-19
0.398862
-2.10845e-16
0.386087
0.850373
1.21265
2.57743e-10
-1.73734e-14
0.00529445
0.929557
1.01602
1.4372
0.165822
1.16466
-9.04727e-12
-0.012128
0.186858
0.529414
1.64095
1.06523e-06
0.960815
0.0534573
0.00227865
0.743116
-8.10914e-13
1.05354
1.49626
1.69803
0.906899
1.09406
1.51622
2.31089e-06
1.07216
0.913104
1.53825
-3.67529e-10
1.01757
5.27161e-10
0.147586
0.0494493
-2.14964e-06
1.04079
-0.000153453
0.185887
0.270732
0.997103
-0.00463284
0.000736466
0.220601
0.238239
5.21648e-13
0.995075
0.547914
7.03251e-09
2.58253e-14
-9.36147e-12
1.31138
0.978442
0.0454508
1.27135
0.726396
0.427728
-2.64459e-06
1.97589e-17
1.55983
1.53593
0.996263
0.163168
0.8062
1.63973
0.0137199
0.251577
0.00738138
-1.21419e-07
0.0323113
1.36314
0.447895
0.00391651
1.67253
0.0266319
-0.173061
-4.6484e-13
0.49164
0.654097
0.0106847
8.5423e-07
0.914782
0.989798
0.058513
0.000585938
2.51975e-13
1.00272
1.52587
3.52404e-11
0.018042
4.83467e-16
-1.93312e-09
0.003112
1.39004
0.0831218
1.54446
1.58933
2.35396e-15
0.101868
0.966609
-6.87609e-10
0.91982
0.00033071
0.137205
1.45386
1.32687
0.553994
0.0261622
1.5564
1.45244
1.88373e-08
0.141882
1.02138e-11
0.279474
1.00779
0.254937
0.0577601
0.000230285
1.08118
1.41257
1.42257
0.542416
1.39907
1.56645
1.0154
1.22948
-8.42512e-09
1.08663
0.00551627
-4.85355e-10
0.352736
0.0708427
0.032994
1.32028
0.659796
1.40988
0.702056
0.00287343
-2.37933e-10
0.447571
1.41994
1.10587e-09
2.4983e-16
0.0266321
0.837257
0.034777
9.90756e-06
0.730901
0.938667
0.194626
0.000177888
1.38022
0.0146127
0.070814
0.99176
0.033363
1.60819
0.37592
1.50113
0.241717
0.00511939
0.000647718
0.0223697
-1.83612e-13
1.44692
2.60049e-05
7.7264e-12
0.0251536
0.391321
1.29831
2.68827e-10
0.981824
1.42869
1.15479
0.000873892
3.20837e-12
-0.000599902
7.45379e-15
0.0711822
-0.00984608
1.41465
0.849472
0.00142151
0.0653916
0.000890445
1.63516
7.56409e-12
1.5252e-05
0.00237106
0.00123334
4.2824e-05
0.956772
3.89097e-14
1.61002
0.190579
8.59455e-19
-0.0017101
0.171409
1.57444
0.0270906
-3.48983e-08
0.913058
0.0378942
1.97488e-14
0.822341
-5.90753e-13
-6.61188e-05
1.60967e-13
1.35468
1.83009e-07
0.879523
0.0956837
1.60107
0.406144
1.20262
1.01417
1.20086e-11
0.000786257
0.011692
0.0250178
0.256814
1.10653
9.11522e-05
4.27057e-15
0.00239383
1.30387
0.915665
7.13625e-12
0.00900348
0.968191
0.251147
0.00391095
0.321196
-0.0374738
0.0668213
-9.8177e-08
1.95869
1.06372e-13
0.0301382
0.756529
1.62881
1.52859
1.3354
-1.97844e-15
1.45063
1.8546e-10
-1.55448e-06
1.52191
0.0226908
4.45458e-12
0.009321
1.08842
0.111862
0.0559019
1.44748
1.1498e-05
0.107511
0.622695
0.00984
2.68376e-08
6.10754e-15
-6.15488e-11
0.451803
1.18487
0.950403
0.496145
0.382672
-1.11463e-06
3.52288e-12
0.0742796
-0.000107026
1.4151
2.02232e-14
0.00761713
0.0546233
1.27765
0.231979
-1.82699e-10
0.132155
1.22008
0.7478
-5.07728e-12
-2.34483e-05
0.0443376
1.64608
-1.91941e-14
1.51957
0.403034
1.03851e-12
-7.55053e-07
-7.73842e-10
0.701821
0.001259
0.00266464
0.121453
1.5589
1.18499
0.0199702
0.579958
0.177717
0.199187
0.825681
9.51894e-05
1.41029
1.37779
0.687176
1.02304
1.47601
1.02765
0.586258
0.00172625
0.00028968
1.14506
1.554e-09
0.00101819
0.304526
0.855135
-5.41018e-08
0.0072417
0.120351
-0.00598345
1.03817
0.704777
-1.21034e-12
1.24538
1.09704
-3.47321e-11
1.33718
1.24857e-15
1.27748
0.000147324
1.65718
-1.22085e-14
0.334039
0.755628
0.0242189
0.0109698
6.91627e-12
0.0410389
1.5909
0.236897
1.52847
-7.62322e-13
1.90663e-07
1.37401
-7.51396e-11
1.48758
0.714464
-2.35631e-10
2.14104e-15
1.91709
1.48569
0.67975
0.0967295
3.50255e-11
1.86324e-13
-2.28366e-08
-2.81029e-17
0.00177582
1.08762
1.07784
4.95091e-05
7.1078e-05
1.49088
-4.21571e-10
0.123918
-1.79796e-13
8.46873e-05
1.10679
-1.00843e-12
1.45966
0.443429
0.96541
0.0283804
-7.25201e-08
-2.36271e-09
0.00145044
-2.08647e-12
5.78344e-05
1.0863
0.0296389
0.0718945
0.0222018
1.43607
0.00065432
0.00151877
0.177074
0.0089098
0.00573762
1.52778
5.02058e-18
-0.00194076
0.964608
1.47783
0.686071
-6.27836e-11
1.02459
0.109251
9.68759e-10
1.03396
1.20779e-11
0.274673
1.00281
-6.22719e-14
8.50684e-14
1.44636
0.0515492
0.120754
2.19864e-12
0.334679
1.12135
0.0201061
-5.34217e-07
3.40966e-08
0.00940758
0.263206
0.166637
8.70272e-19
0.0464333
0.0111649
0.986661
1.0046
4.26927e-18
0.0134432
0.187584
-3.38199e-11
0.0141149
-2.02904e-14
1.2836
-4.80031e-18
3.2131e-17
-1.04054e-17
-0.0132995
1.24944
1.37701
0.00293495
-3.64589e-17
2.04047e-14
-5.51954e-16
0.137749
-1.91177e-10
1.25916
1.6469
0.990101
3.59317e-08
3.5557e-09
0.000387495
0.691294
1.52262
0.640082
1.09493
1.15006
5.76121e-13
0.98928
0.0244275
-7.48495e-13
1.0872e-08
0.00758579
2.36855
1.13711
4.74376e-08
0.412258
0.835227
0.813126
1.38939
0.0872597
4.12538e-11
0.406095
-1.24844e-10
1.32551
-1.19202e-10
2.24801e-17
-5.10709e-10
0.00453321
0.994419
-1.31834e-10
0.965318
1.0143e-15
0.56463
0.238998
0.65521
-5.85873e-07
0.841289
1.07302
-1.80929e-08
0.285144
1.00402
-1.81798e-06
0.249325
-7.9683e-10
1.39942
1.43008
0.0294504
0.0432669
0.0580044
1.54776
7.46794e-08
0.819327
1.23938e-13
-6.98915e-18
0.992175
0.960952
3.2918
0.592402
1.19732
0.000280961
0.566709
0.874989
1.22643e-10
-1.999e-07
0.180113
1.41135e-06
-7.6849e-12
1.66182
1.07322
1.53864
1.15373
1.60863
0.945501
0.0247075
0.114351
1.63232
0.645017
0.108461
0.437203
0.00540497
-8.37787e-05
0.0438039
1.15664
0.25408
1.07508
-1.87262e-09
2.56409e-10
0.00422189
1.1301
1.15612
0.878844
1.01856
1.3399e-07
0.0201292
1.01443
0.0684579
1.43714
1.55289
1.11157
1.32729
9.69045e-10
0.0308463
-1.30209e-07
0.97855
0.995284
0.989171
3.47414e-13
0.990707
1.00303
7.32419e-16
-8.97046e-14
4.14153e-05
-3.32278e-07
4.59396e-07
-0.0210335
0.0198108
0.544916
0.0321519
3.99578e-10
1.28652
1.27482
1.37599
0.750402
1.3802
2.31538e-13
6.98641e-10
0.998781
-0.0117226
1.88778
0.984637
0.742962
-1.66182e-08
1.1425
0.00533406
0.016006
1.06651
-1.35163e-05
0.431542
1.02573
-1.69073e-10
6.03025e-10
1.03781
1.11878e-05
0.12119
1.48492
0.253183
0.0185826
0.894248
0.406507
0.722822
1.0616
0.000651191
-1.01668e-13
1.02629
-3.82365e-07
0.61005
0.80597
0.0112593
0.240592
1.50576
3.9292e-07
1.31553
0.215145
0.0220512
1.95897e-08
0.000699164
0.00027674
0.981562
-2.17316e-08
2.36687
1.47679
0.553752
6.83877e-16
0.995374
0.000254693
0.3414
0.0228848
1.72326
1.02446
-7.41733e-17
0.00158423
0.0522732
1.52545
-8.6377e-12
1.7195
0.123576
1.6128e-13
0.789853
-9.14251e-16
0.00165243
1.12807
0.498004
1.13416
1.0521
1.9311e-12
0.000222588
0.077575
0.000455817
0.000342807
1.51467
1.32766
0.670481
5.33187e-11
1.42401
1.82637
8.49946e-14
-1.42053e-15
2.03677
-0.0104712
7.66165e-19
0.327594
0.000788862
1.00778
0.158549
1.48108e-13
1.00438
0.604331
1.65269
-4.57436e-14
1.79795
1.62288
2.37721e-09
-6.18384e-07
0.289009
0.00872267
2.49468e-08
1.78334
-9.90708e-12
1.42599
0.672408
2.60965e-05
1.04723
0.101683
1.14038
0.347781
0.0606419
-0.00491048
1.14854
0.97237
0.00326146
0.000207879
3.60448e-05
1.88397
-1.39345e-13
0.884503
-4.16495e-10
0.25943
2.47606e-10
1.65668
0.904229
1.62992
1.17913
0.00648594
1.0105
0.886359
3.21398e-07
-1.05718e-05
0.0600785
-6.79602e-06
0.0316114
0.00528413
0.0379514
-5.11065e-16
1.25318e-11
0.00312528
0.000903432
4.36432e-16
2.79892e-12
0.32884
-0.00037184
0.152546
4.04894e-12
1.68153
0.602918
1.48825
0.627835
1.52279
1.45456
1.47957
-4.71068e-13
1.97086e-08
0.00216533
0.134836
0.29727
0.362561
1.55868e-09
0.985294
3.4015e-10
2.25316e-07
9.75963e-16
0.00481273
1.03948
2.07191
0.442305
0.334605
3.48049e-15
0.0129951
1.19916
1.5458
0.0122868
0.795243
0.987766
0.0486895
1.75455
1.47449
1.02993
0.856083
0.112569
1.01434
0.893968
1.66439
1.29333
0.384459
0.00364159
1.57476e-10
0.962491
1.02944
-4.05256e-09
1.62403
1.592
0.299627
1.02072
1.76927e-09
2.93409e-15
1.3608
0.125124
0.543777
0.525181
1.47546
1.51005
0.00684774
0.961085
-5.69003e-07
0.581403
0.199182
-2.0868e-13
1.62842
0.0556504
1.25186
1.57384
0.0506594
0.0116672
-8.43968e-05
1.55129
0.13672
0.409168
0.622789
-5.80674e-16
-5.87795e-09
1.25252
7.43625e-08
0.0148696
1.20851
1.2682
6.70485e-13
-3.49783e-09
-0.0443685
0.254823
0.000779572
-0.0137551
1.47043
0.00306971
0.301914
-1.25147e-05
0.0769383
0.584036
0.496377
-3.099e-10
0.679945
1.40127
1.39609
4.00756e-05
8.07036e-07
0.424264
0.137974
0.00293162
-6.84147e-10
-1.04032e-14
0.00326932
0.0328578
1.40095
4.45251e-11
7.3889e-16
9.66117e-09
0.107041
0.420195
0.089031
0.0032772
9.33316e-13
-3.76579e-10
0.0693048
0.0149634
1.62573
0.107408
1.50388
0.0173832
0.143806
9.23993e-08
0.00711707
2.05032e-12
0.180847
3.103e-07
0.464046
1.39556
0.542853
2.17062e-08
6.56254e-11
0.969391
2.2809e-05
0.0502275
1.01637
-5.4108e-11
0.372903
0.175792
0.00160818
1.44134
0.00992733
-1.59537e-07
0.764651
-9.23888e-08
-1.15496e-07
0.0753884
2.13224e-07
0.160052
-6.9093e-11
0.510944
-1.00501e-06
1.47896
0.00305347
0.00828208
1.65265e-11
0.719129
4.9814e-09
1.02348
0.492474
-7.77593e-06
6.69657e-08
0.069196
-9.60159e-08
1.25863
1.12955
1.49093
0.784243
1.00114
1.50661
-1.49532e-08
1.69612
0.00989066
2.02162
0.111298
4.24933e-09
-1.67488e-09
1.6746
1.81225e-15
-5.3959e-12
0.419454
-2.2689e-07
0.0502965
1.11947
1.55498
1.70238
-3.09003e-14
6.84725e-10
0.00162227
0.986337
-1.29524e-10
6.51376e-11
1.35698
1.21007
0.0742059
0.000802928
1.1417
-3.09577e-13
-2.65351e-14
1.73107e-06
1.20542
2.21387e-13
0.94369
1.58691
0.00767883
0.000343844
1.53087
1.3275
0.277311
0.0308463
4.71716e-08
2.73492e-11
0.0136161
0.000302698
-1.28323e-08
1.25671
-1.2281e-07
1.24791
1.66992
5.40233e-05
0.5742
1.647
-1.68291e-16
4.46317e-05
1.19608
-6.3238e-08
1.40667
0.0565536
-0.000609667
-7.11329e-06
0.0776731
2.88703e-17
1.66923
1.52196
7.64578e-09
0.00371805
1.56244
1.56924
1.00399
0.232906
0.141417
0.00174896
0.00183233
-0.000372045
1.45199
1.63364e-12
0.00571543
0.44934
0.00106404
0.0166222
2.14817
1.29153
0.00585166
1.21584e-12
0.289792
-1.30275e-10
-5.78116e-16
-9.06207e-09
0.00214056
0.00119148
1.51404e-16
-1.54593e-16
6.63209e-07
0.00345728
-3.98724e-07
0.000227608
1.49149
0.945655
1.60322e-17
0.653297
1.76574
-6.73135e-19
-0.00272263
0.000390525
0.064694
1.25202
0.14298
1.52019
3.0922
0.00856649
0.290245
-2.35439e-06
0.963415
1.86486e-05
0.0393506
-6.39891e-05
2.03287e-09
0.949967
0.00342607
0.016088
0.924068
0.324801
1.06173
0.584789
1.04136
0.265174
0.998006
0.000365201
0.0923182
0.474721
-8.25342e-16
0.0144932
-2.19084e-13
0.000195992
1.10673
0.0708969
0.966763
1.72989e-13
2.15909e-07
1.23387e-08
7.16612e-13
-3.98698e-07
1.02103e-08
1.70269
0.445704
-0.0285872
0.833017
0.139008
-1.13217e-08
0.0185295
0.0025976
1.10274
1.42589
1.62955
0.0133704
0.758168
0.288633
1.04058
1.27585
1.51896
0.90161
0.161056
1.4083
1.31249
-1.36403e-16
0.975724
0.971482
1.49202e-11
7.22074e-05
0.927586
0.0300079
0.00113052
9.92688e-11
0.523153
7.52863e-13
-1.10684e-09
-4.44071e-15
0.349201
0.654203
1.09132e-09
0.94945
0.00122942
1.59793
0.395616
0.128286
1.55339
1.55739
0.104493
1.24255
2.86104e-12
0.00343237
0.00156511
0.0187639
0.93737
-3.04844e-13
0.411397
-1.21199e-06
0.0534383
1.02944
0.00695371
0.0462711
-3.74101e-09
1.05993e-15
0.482006
0.327109
8.02543e-13
5.75024e-06
0.00725553
1.31558
1.507
8.67873e-17
0.969519
1.55755
-1.45782e-06
-0.000174803
1.18597
0.00312082
0.00150553
1.22108e-12
-6.56155e-16
7.451e-12
-4.63884e-12
-4.07497e-11
0.395555
9.30999e-08
1.12731e-08
1.45318
-1.81127e-13
-3.08857e-12
1.02928
0.0140273
6.6742e-16
0.706023
0.850528
-1.25101e-13
-2.85466e-11
0.217801
0.513013
1.86039
-0.000712922
1.75292e-12
0.216028
0.146212
0.900265
-3.27257e-05
1.07301
-3.81006e-09
-8.5856e-12
1.38141e-13
2.06411e-14
-1.23182e-07
0.00439191
0.174342
-3.1153e-14
0.00112873
1.3634
-1.08781e-14
1.16168
-3.34137e-09
7.41946e-12
-0.000166242
1.10935e-13
0.206068
5.08052e-08
1.46627
-2.72146e-11
4.20507e-08
4.05966e-11
-2.75767e-15
2.09795e-17
1.34041e-09
1.68159
8.95311e-13
0.000306106
0.00389365
4.00035e-13
1.68402e-06
0.974702
-1.68911e-15
6.50775e-08
1.62137
1.45661
0.382745
0.168374
0.000869089
0.0141859
8.05363e-05
3.69212e-15
1.62913
0.973671
0.0580808
1.21259e-08
0.268526
0.969523
1.43801
1.01755
0.902069
8.09617e-14
0.448576
-6.79014e-11
0.0168038
0.980992
-4.47552e-05
1.70881
-5.90884e-14
-4.94597e-06
5.67727e-05
-9.41831e-19
0.893674
3.03037e-15
1.35324
-0.0472657
1.78355
0.618002
-5.75969e-13
2.01811
1.49076
0.961224
-1.48489e-15
0.804563
1.06582
1.57335
0.25601
0.468254
1.59176
1.69144
1.67064
1.18265
1.48983
-6.00316e-14
0.0756074
1.01981
0.939429
0.0115137
0.609202
-4.22602e-09
1.28062e-09
1.27057e-15
1.01595
1.44232e-16
0.212249
1.45366
5.64518e-07
1.19557e-08
0.0398227
0.0739341
-0.0375385
1.29658
0.857145
3.24374e-12
0.409611
0.703423
-1.25975e-05
-2.31028e-07
0.119849
0.987045
1.16438
-0.0106854
-2.19705e-12
0.984297
0.809558
1.61891
0.988411
0.893474
1.36491
1.85029e-09
0.512964
0.770287
0.00979463
0.00160047
0.951326
1.19556
-1.88597e-15
-1.03628e-07
5.1146e-07
0.642483
0.231148
-8.06526e-12
1.48124
0.7705
0.0142604
1.03306
0.0316421
0.571642
1.00114
-6.73337e-08
-5.49323e-15
1.5155
-6.2685e-13
1.44098
-2.13832e-12
0.0173419
-1.30176e-18
1.37158
-0.000626002
-1.21542e-18
0.190281
0.93062
1.47845e-12
7.80705e-05
0.81847
1.17789
0.914219
1.02708
3.7603e-11
0.862009
0.260022
3.91472e-08
1.54093
0.000875064
1.10316
-1.21721e-17
0.00026812
1.00241
0.00254876
0.0197876
-0.0117172
0.00327334
-6.80864e-14
-1.78724e-10
0.722144
0.979417
1.36705
1.06628
-5.85733e-13
0.163426
1.3988
-1.67178e-11
0.106105
-3.4755e-16
0.721402
4.37369e-09
0.940053
0.7161
0.962677
1.27099
1.54801
-0.000423953
3.10272e-08
0.254731
0.881564
0.987403
-1.01518e-14
0.13016
1.05592
1.13569
8.86915e-18
2.278e-08
0.0312719
0.0748153
0.988701
0.0637544
5.71206e-13
3.94232e-07
1.57029
-4.97744e-05
1.11231
1.03942
0.00743068
0.196012
0.00932125
1.48644
0.0203152
0.000331297
-1.29144e-07
1.91821e-13
0.681632
0.00058237
0.0355591
-4.6711e-06
1.07411e-09
1.51077
-3.84071e-17
1.3967
-2.3564e-10
0.00134836
0.00784886
0.312786
1.47404
1.53892
1.24164
0.700396
0.0816419
0.0668659
0.501145
-2.51038e-08
-0.0311186
1.23855
1.07244
2.18732e-08
1.54517
-2.4981e-18
1.02369
0.772005
5.36872e-10
0.485568
-0.0175116
-6.56677e-09
0.000770922
1.52942
1.08072
-0.0499744
0.797727
0.518867
1.60158
0.000104854
0.000463764
1.13899e-10
3.74337e-05
0.388927
1.37152
-8.75983e-16
0.186694
0.908188
-8.3284e-13
0.989462
1.59635
0.0131092
0.00755536
0.455204
-4.21153e-09
0.811957
9.06235e-05
-0.0491612
0.0511278
-6.93556e-10
1.67945
0.0178962
1.58266
1.28588
0.000951025
1.36195
1.74927
1.00157e-10
-0.0734797
0.259616
0.244901
0.193811
1.47031
0.0156488
4.538e-11
0.503019
1.06587e-18
0.919421
1.63439
0.0194162
-3.67446e-05
0.00174885
0.000352615
6.29029e-15
-0.00012586
1.43716
-5.61434e-17
0.0980892
4.74591e-13
-2.35829e-11
1.81965
-6.38865e-12
1.55424
0.0741165
0.00576141
0.0268195
0.00605736
0.753863
1.03714
0.129416
0.565732
-2.12045e-06
1.07762
1.46541e-12
-4.88141e-07
-3.40307e-10
0.0298095
0.0355338
9.28294e-05
-2.00114e-16
-0.000181558
-1.41355e-14
1.08037
0.00908283
1.95295e-12
0.547011
3.48939e-15
1.3259
0.0122504
0.334763
0.101316
1.16848e-12
0.475568
1.3907
3.25877e-06
1.45881
9.23303e-07
1.04941e-07
0.29217
0.000426438
0.0287792
1.29937
-7.01545e-09
0.00308816
1.00587
3.0435e-09
-0.00621536
0.0587177
1.58223
0.993083
1.19566
-3.12819e-07
1.11709
0.90452
0.428587
1.43163
0.00426555
3.29646e-09
0.053749
1.52137
-3.87192e-13
0.753258
0.0104029
0.96171
1.41124
0.683429
0.60653
0.0969686
1.13077
1.71665
0.564811
1.07352
0.252044
0.00499228
1.67632
0.000363002
1.53067
0.00114264
0.000150952
-9.21238e-11
0.384018
0.153096
1.22833
0.299989
0.00653874
8.32763e-06
2.71537e-05
0.166376
0.056181
1.36332e-11
0.00118628
-9.89047e-15
-0.0390023
0.213395
6.15419e-08
0.552072
0.176183
0.301358
-7.76461e-17
1.39951
0.0765077
1.61151
1.15949
0.00260084
1.05403
0.662022
1.52717
1.15147
0.176257
-9.03229e-07
0.661506
0.753318
1.52438
0.0675997
1.77861
6.06105e-08
0.452443
0.0269748
1.50823
3.73674e-16
0.00253965
0.458066
0.0436121
0.480958
0.00848102
1.37728
1.14517
1.51954
1.19765
1.45277
0.935625
0.94454
1.64497
1.12636
1.12703
0.121343
1.43561
0.240946
0.00083318
1.49616
0.00033557
1.00731
8.53448e-12
0.000771724
1.36575e-09
1.39877
0.263301
0.00250079
0.173934
0.950624
0.0406457
1.79432
0.856628
0.00276223
1.9471
-4.24834e-11
-2.11857e-12
1.36517
0.092712
0.000198059
0.151479
0.883927
3.84105e-10
0.04667
0.295629
-4.57143e-12
2.34542e-16
1.10333
0.12557
0.540325
0.216539
1.402
0.910119
0.94165
0.0988027
0.636675
-2.51809e-14
1.41137
0.067645
0.563463
0.00157087
0.353889
0.0438241
1.07272
0.00199975
3.94645e-19
0.000661572
0.916561
-4.06389e-15
-6.65325e-12
0.236282
1.08845
0.43774
-3.49088e-06
0.0662099
0.945575
7.03738e-10
0.606995
0.019455
-2.53655e-13
8.19306e-13
0.642415