/*--------------------------------*- C++ -*----------------------------------*\
| =========                 |                                                 |
| \\      /  F ield         | OpenFOAM: The Open Source CFD Toolbox           |
|  \\    /   O peration     | Version:  4.1                                   |
|   \\  /    A nd           | Web:      www.OpenFOAM.org                      |
|    \\/     M anipulation  |                                                 |
\*---------------------------------------------------------------------------*/
FoamFile
{
    version     2.0;
    format      ascii;
    class       volScalarField;
    location    "0.3";
    object      p;
}
// * * * * * * * * * * * * * * * * * * * * * * * * * * * * * * * * * * * * * //

dimensions      [0 2 -2 0 0 0 0];

internalField   nonuniform List<scalar> 
500
(
-7.92518e-07
-1.50901e-06
3.11986
3.11986
0.0146986
0.0146985
-2.29155
-2.29155
-0.0467514
-0.0467515
2.59749
2.59749
0.0166067
0.0166068
-2.82675
-2.82675
-0.0445575
-0.0445575
-0.00526488
-0.0052651
-0.0993411
-0.0993411
-0.167264
-0.167264
0.00441168
0.00441167
0.0538798
0.0538798
-0.0295691
-0.0295691
-0.0756498
-0.0756498
-0.0548003
-0.0548003
-0.0923372
-0.0923372
-0.104077
-0.104077
-0.109895
-0.109895
0.00390266
0.00390265
0.0746503
0.0746503
0.00107747
0.00107745
-0.175525
-0.175525
-0.0366304
-0.0366304
-0.0258452
-0.0258452
0.0473413
0.0473413
-0.209991
-0.209991
0.0495506
0.0495506
-0.0452521
-0.0452521
0.00487806
0.00487808
-0.0752033
-0.0752033
0.00882727
0.00882718
-0.0489931
-0.0489931
-0.00289771
-0.00289774
-0.018271
-0.0182709
-0.051466
-0.051466
-0.0306857
-0.0306858
-0.243138
-0.243138
0.0276331
0.0276331
-0.035806
-0.0358059
0.0104088
0.0104088
0.629034
0.629034
0.0285328
0.0285328
-0.45535
-0.45535
-0.03559
-0.0355901
-0.611497
-0.611497
0.389883
0.389883
-0.0558994
-0.0558994
0.00247369
0.0024737
-0.0679091
-0.0679091
-0.323234
-0.323234
0.0365344
0.0365343
0.234916
0.234916
-0.0465658
-0.0465658
-0.33019
-0.330191
0.0286236
0.0286236
0.182846
0.182846
-0.0960353
-0.0960354
-0.126129
-0.126129
-0.00454363
-0.00454365
0.0573715
0.0573715
-0.442373
-0.442373
-0.0488796
-0.0488796
0.326661
0.326661
0.0103592
0.0103591
-0.17145
-0.17145
-0.0206509
-0.0206509
-0.0189849
-0.0189849
0.101741
0.101741
-0.0519939
-0.0519939
-0.198293
-0.198293
0.0583869
0.0583869
0.0491311
0.0491311
-0.482124
-0.482124
-0.0543966
-0.0543966
0.586796
0.586796
0.0205929
0.0205929
-0.249657
-0.249657
-0.0454135
-0.0454135
0.041785
0.041785
0.0266687
0.0266687
-0.122138
-0.122138
-0.00637499
-0.00637501
-0.120172
-0.120172
0.0336644
0.0336643
-0.104182
-0.104182
-0.0833054
-0.0833055
-0.00466639
-0.00466643
0.0983188
0.0983187
-0.0862657
-0.0862657
-0.162995
-0.162995
-0.0171187
-0.0171187
0.124647
0.124647
0.819892
0.819892
0.0366356
0.0366356
-0.585983
-0.585983
-0.0259036
-0.0259036
-0.781758
-0.781758
0.569423
0.569423
-0.0641577
-0.0641577
-0.00551254
-0.00551253
-0.0403258
-0.0403258
-0.471489
-0.471489
0.0224983
0.0224982
0.38192
0.38192
-0.61613
-0.61613
-0.0506771
-0.0506771
0.404137
0.404137
0.0205345
0.0205345
1.35059
1.35059
0.0274554
0.0274554
-0.844153
-0.844153
-0.0341631
-0.0341631
0.938167
0.938167
-1.22617
-1.22617
0.00372736
0.00372735
-0.0565824
-0.0565824
-0.106998
-0.106998
-0.137588
-0.137588
-0.0116737
-0.0116737
0.115944
0.115944
1.60845
1.60845
0.0257859
0.0257859
-1.13662
-1.13662
-0.0357357
-0.0357357
1.27257
1.27257
-1.4761
-1.4761
0.00544851
0.0054485
-0.0554432
-0.0554432
-0.475283
-0.475283
-0.0471489
-0.0471489
0.435899
0.435899
0.0184317
0.0184317
-0.0403929
-0.0403929
-0.160954
-0.160954
0.0586435
0.0586435
0.0257295
0.0257295
-0.211775
-0.211775
-0.0312686
-0.0312685
-0.0327244
-0.0327244
0.120892
0.120892
-0.195306
-0.195306
-0.0280544
-0.0280544
-0.137066
-0.137066
0.0520097
0.0520097
-0.0545981
-0.0545981
-0.365019
-0.365019
0.017581
0.0175809
0.150921
0.150921
-0.0543308
-0.0543308
-0.407776
-0.407776
-0.00192507
-0.00192509
0.120933
0.120933
-0.264923
-0.264923
-0.0296572
-0.0296572
-0.317681
-0.317681
-0.0442256
-0.0442256
0.0290909
0.0290908
0.396133
0.396133
0.319672
0.319672
0.0295498
0.0295498
-0.15419
-0.15419
-0.0358416
-0.0358416
-0.0336508
-0.0336508
0.0548398
0.0548398
-0.130214
-0.130213
-0.0414459
-0.0414459
-0.112886
-0.112886
-0.0213647
-0.0213647
-0.58484
-0.58484
-0.0428436
-0.0428436
0.688375
0.688375
0.0198677
0.0198677
-0.703805
-0.703805
-0.0483765
-0.0483765
0.556589
0.556589
0.0104927
0.0104927
-0.22006
-0.22006
-0.0904352
-0.0904352
0.103547
0.103547
0.00922673
0.00922671
-0.260078
-0.260078
-0.0502292
-0.0502292
0.154771
0.154771
0.0212704
0.0212704
-0.384031
-0.384031
-0.0639999
-0.0639999
0.296324
0.296324
0.027199
0.027199
-0.194104
-0.194104
0.025851
0.0258509
-0.0182386
-0.0182386
0.0299898
0.0299898
-0.268971
-0.268971
-0.0556529
-0.0556529
0.0636982
0.0636982
0.0115072
0.0115072
-0.382113
-0.382113
-0.0470897
-0.0470897
0.174484
0.174484
0.0207311
0.0207311
-0.0998242
-0.0998242
-0.264598
-0.264598
-0.00100715
-0.00100714
0.207347
0.207347
-0.264106
-0.264106
-0.0371453
-0.0371453
0.0525503
0.0525503
0.0391551
0.0391552
-0.77019
-0.77019
-0.0514584
-0.0514584
0.937648
0.937648
0.0139989
0.0139989
-0.913204
-0.913204
0.795321
0.795321
-0.0441145
-0.0441145
0.0203605
0.0203605
-0.282483
-0.282483
-0.0359633
-0.0359634
0.0926014
0.0926013
0.0316113
0.0316113
-0.078039
-0.078039
-0.11838
-0.11838
-0.205031
-0.205031
-0.0458312
-0.0458313
0.0177083
0.0177082
0.176191
0.176191
0.240436
0.240436
-0.000134199
-0.000134205
-0.198061
-0.198061
-0.0763736
-0.0763736
-0.224972
-0.224972
-0.0280013
-0.0280013
0.0279547
0.0279547
0.255908
0.255908
-0.289371
-0.289371
0.0518268
0.0518268
-0.0498131
-0.0498131
-0.00229984
-0.00229984
-0.0958935
-0.0958934
-0.15052
-0.15052
0.00121284
0.00121287
0.182323
0.182323
-0.340792
-0.340792
-0.0497998
-0.0497998
0.198993
0.198993
0.0358694
0.0358694
-0.0398163
-0.0398165
-0.0245866
-0.0245866
)
;

boundaryField
{
    frontAndBack
    {
        type            empty;
    }
    movingWall
    {
        type            zeroGradient;
    }
    fixedWalls
    {
        type            zeroGradient;
    }
}


// ************************************************************************* //
