/*--------------------------------*- C++ -*----------------------------------*\
| =========                 |                                                 |
| \\      /  F ield         | OpenFOAM: The Open Source CFD Toolbox           |
|  \\    /   O peration     | Version:  4.1                                   |
|   \\  /    A nd           | Web:      www.OpenFOAM.org                      |
|    \\/     M anipulation  |                                                 |
\*---------------------------------------------------------------------------*/
FoamFile
{
    version     2.0;
    format      ascii;
    class       surfaceScalarField;
    location    "0.3";
    object      phi;
}
// * * * * * * * * * * * * * * * * * * * * * * * * * * * * * * * * * * * * * //

dimensions      [0 3 -1 0 0 0 0];

internalField   nonuniform List<scalar> 
960
(
3.06106e-12
-4.65445e-06
-4.33165e-06
8.98612e-06
-4.65446e-06
-4.33166e-06
8.98612e-06
1.83423e-13
-1.65843e-05
1.65843e-05
-1.65843e-05
1.65843e-05
7.0436e-14
-8.97037e-08
8.97036e-08
-8.97038e-08
8.97036e-08
1.77986e-13
-1.55388e-05
1.55388e-05
-1.55388e-05
1.55388e-05
1.96925e-13
-1.04095e-07
1.04095e-07
-1.04096e-07
1.04095e-07
-2.87283e-14
-1.65843e-05
-1.65843e-05
-2.97533e-14
-8.97036e-08
-8.97035e-08
-5.03346e-14
-1.55388e-05
-1.55388e-05
2.58842e-14
-1.04095e-07
-1.04095e-07
1.18358e-12
5.55097e-06
-1.02054e-05
5.55097e-06
-1.02054e-05
6.98808e-14
1.07552e-05
-3.37853e-06
-7.37663e-06
1.07552e-05
-3.37853e-06
-7.37663e-06
-3.06435e-14
7.15556e-07
-4.08825e-06
3.37269e-06
7.15556e-07
-4.08825e-06
3.37269e-06
5.90059e-14
4.19205e-06
2.92225e-06
-7.1143e-06
4.19205e-06
2.92225e-06
-7.1143e-06
8.78603e-15
-5.56332e-06
9.31676e-06
-3.75344e-06
-5.56332e-06
9.31676e-06
-3.75344e-06
1.08866e-14
1.02712e-05
-5.37025e-06
-4.9009e-06
1.02712e-05
-5.37025e-06
-4.9009e-06
-1.08247e-13
6.27175e-06
2.3589e-06
-8.63065e-06
6.27175e-06
2.3589e-06
-8.63065e-06
3.44799e-14
2.0743e-06
8.19686e-06
2.0743e-06
8.19686e-06
-5.89696e-14
-1.55514e-06
7.82688e-06
-1.55514e-06
7.82688e-06
1.38413e-13
2.80795e-06
7.94721e-06
2.80795e-06
7.94721e-06
9.60611e-14
2.48238e-06
-1.76682e-06
2.48238e-06
-1.76682e-06
6.24786e-14
-1.57938e-06
5.77142e-06
-1.57938e-06
5.77142e-06
2.57572e-15
-1.23802e-05
6.81689e-06
-1.23802e-05
6.81689e-06
8.92694e-14
-4.57946e-06
1.01304e-05
-4.57946e-06
1.01304e-05
-9.70607e-14
5.17769e-06
-5.17769e-06
5.17769e-06
-5.17769e-06
1.55249e-14
3.91787e-05
-3.91787e-05
3.91787e-05
-3.91787e-05
-6.45318e-14
1.74285e-06
-1.74285e-06
1.74285e-06
-1.74285e-06
-1.21313e-13
3.84624e-06
-3.84624e-06
3.84624e-06
-3.84624e-06
-6.27827e-14
9.7118e-07
4.20651e-06
9.7118e-07
4.20651e-06
1.05803e-14
1.18216e-05
2.73571e-05
1.18216e-05
2.73571e-05
-3.48342e-14
1.03761e-06
7.05245e-07
1.03761e-06
7.05245e-07
-8.11051e-14
2.77328e-06
1.07296e-06
2.77328e-06
1.07296e-06
1.84502e-14
-5.64338e-06
-5.64338e-06
3.16037e-13
-8.88658e-07
-8.88659e-07
1.20781e-14
-3.3709e-06
5.4452e-06
-3.3709e-06
5.4452e-06
1.00348e-13
-6.76107e-06
2.18161e-06
-6.76107e-06
2.18161e-06
-4.43657e-14
5.9894e-06
4.14102e-06
5.9894e-06
4.14102e-06
1.042e-13
6.99461e-06
-4.6357e-06
6.99461e-06
-4.6357e-06
8.18386e-14
3.12119e-06
-8.49144e-06
3.12119e-06
-8.49144e-06
-7.02574e-14
-8.26759e-06
9.23877e-06
-8.26759e-06
9.23877e-06
-8.82311e-15
-4.08447e-06
1.5906e-05
-4.08447e-06
1.5906e-05
-1.94387e-14
-8.75366e-07
1.91298e-06
-8.75366e-07
1.91298e-06
-5.63535e-14
-3.99031e-08
2.81318e-06
-3.9903e-08
2.81318e-06
1.91978e-13
-1.07589e-05
1.07589e-05
-1.07589e-05
1.07589e-05
2.18625e-13
-6.99717e-07
6.99716e-07
-6.99717e-07
6.99716e-07
2.87559e-13
-3.05626e-05
3.05626e-05
-3.05626e-05
3.05626e-05
2.29235e-13
-8.60972e-07
8.60971e-07
-8.60972e-07
8.60971e-07
-1.04534e-13
9.79179e-06
-9.79179e-06
9.7918e-06
-9.79179e-06
-6.31561e-14
3.1882e-05
-3.1882e-05
3.1882e-05
-3.1882e-05
-8.42078e-14
7.27048e-07
-7.27048e-07
7.27048e-07
-7.27048e-07
-7.11393e-14
8.37502e-07
-8.37502e-07
8.37502e-07
-8.37502e-07
1.38091e-13
-7.07924e-06
4.21043e-07
6.6582e-06
-7.07924e-06
4.21043e-07
6.6582e-06
1.18641e-13
-9.89719e-06
4.42151e-06
5.47569e-06
-9.89719e-06
4.42151e-06
5.47569e-06
1.14579e-13
-4.61613e-06
-3.81253e-07
4.99738e-06
-4.61613e-06
-3.81253e-07
4.99738e-06
-5.55377e-15
1.80176e-06
-1.30531e-05
1.12514e-05
1.80176e-06
-1.30531e-05
1.12514e-05
3.75215e-14
-3.72064e-06
-3.3586e-06
-3.72064e-06
-3.3586e-06
1.02433e-13
-1.30061e-05
3.10888e-06
-1.30061e-05
3.10888e-06
8.7768e-14
-5.25247e-07
-4.09089e-06
-5.25247e-07
-4.09089e-06
-5.00327e-14
1.41434e-05
-1.23416e-05
1.41434e-05
-1.23416e-05
6.65417e-14
-1.98567e-06
-3.19202e-06
-1.98567e-06
-3.19202e-06
1.58205e-13
-3.14242e-05
-7.75451e-06
-3.14242e-05
-7.75451e-06
6.9315e-14
-1.048e-06
-6.94853e-07
-1.048e-06
-6.94853e-07
6.46654e-14
-4.13602e-06
2.89782e-07
-4.13602e-06
2.89782e-07
-1.22544e-14
1.5972e-05
-3.65349e-06
-1.23185e-05
1.5972e-05
-3.65349e-06
-1.23185e-05
2.67138e-14
2.25706e-06
-1.89117e-06
-3.65887e-07
2.25706e-06
-1.89117e-06
-3.65887e-07
7.62541e-14
7.1754e-06
-1.13811e-05
4.20574e-06
7.1754e-06
-1.13811e-05
4.20574e-06
3.90033e-14
2.42372e-06
-3.04864e-06
6.24921e-07
2.42372e-06
-3.04864e-06
6.24921e-07
4.56235e-14
-6.32097e-06
-1.9272e-06
8.24817e-06
-6.32097e-06
-1.9272e-06
8.24817e-06
2.54353e-14
-3.85391e-06
-6.95657e-06
1.08105e-05
-3.85391e-06
-6.95657e-06
1.08105e-05
1.36082e-14
-2.21393e-06
-2.18129e-06
4.39523e-06
-2.21393e-06
-2.18129e-06
4.39523e-06
-7.37163e-14
-8.28427e-07
-8.80832e-06
9.63675e-06
-8.28427e-07
-8.80832e-06
9.63675e-06
-8.00923e-14
4.77684e-06
-8.14774e-06
4.77684e-06
-8.14774e-06
-5.63312e-14
1.38449e-05
-7.5541e-06
-6.29077e-06
1.38449e-05
-7.5541e-06
-6.29077e-06
5.10161e-14
1.57805e-06
-8.33912e-06
1.57805e-06
-8.33912e-06
5.5223e-14
-9.44454e-06
3.90076e-06
5.54378e-06
-9.44454e-06
3.90076e-06
5.54378e-06
7.87335e-14
7.04693e-06
-1.23368e-05
5.28991e-06
7.04693e-06
-1.23368e-05
5.28991e-06
1.13815e-13
2.6777e-06
-2.5624e-06
-1.15294e-07
2.6777e-06
-2.5624e-06
-1.15294e-07
6.10331e-14
1.69061e-05
8.36672e-08
-1.69897e-05
1.69061e-05
8.36671e-08
-1.69897e-05
5.9361e-14
2.40161e-06
-2.17547e-06
-2.26146e-07
2.40161e-06
-2.17547e-06
-2.26146e-07
-5.05743e-14
3.79058e-06
1.00543e-05
3.79058e-06
1.00543e-05
-7.33148e-14
5.65208e-06
-8.75239e-07
5.65208e-06
-8.75239e-07
-1.15673e-14
-1.32839e-06
-8.11615e-06
-1.32839e-06
-8.11615e-06
1.49081e-14
5.45793e-06
-3.87988e-06
5.45793e-06
-3.87988e-06
4.47746e-14
-1.98408e-06
-5.57001e-06
-1.98408e-06
-5.57001e-06
8.82249e-14
-4.72989e-06
-4.72989e-06
3.53399e-14
5.8428e-06
5.8428e-06
3.85007e-13
-9.06155e-06
-9.06155e-06
2.17353e-13
-3.14242e-05
-3.14242e-05
1.56973e-13
-1.98567e-06
-1.98567e-06
1.30661e-13
-1.048e-06
-1.048e-06
1.42367e-13
-4.13602e-06
-4.13602e-06
6.5361e-14
-3.51302e-06
-3.51302e-06
1.47499e-13
-1.37153e-06
-1.37153e-06
5.30093e-14
-3.79331e-06
-3.79331e-06
-6.49885e-15
-1.32086e-05
-1.32086e-05
3.05847e-14
-1.10517e-05
2.92796e-07
-1.10517e-05
2.92796e-07
8.66025e-14
-2.28534e-07
-4.71183e-07
-2.28534e-07
-4.71183e-07
7.75505e-14
-2.17962e-05
-8.76648e-06
-2.17962e-05
-8.76648e-06
2.41348e-14
-2.64486e-07
-5.96487e-07
-2.64486e-07
-5.96487e-07
-3.21677e-14
9.82495e-06
-3.31514e-08
9.82495e-06
-3.31514e-08
-6.22074e-14
2.28334e-05
9.04862e-06
2.28334e-05
9.04862e-06
1.74541e-14
2.49189e-07
4.77859e-07
2.49189e-07
4.77859e-07
-1.72067e-14
2.46771e-07
5.90731e-07
2.46771e-07
5.90731e-07
5.54584e-14
3.09874e-06
3.09874e-06
1.04232e-13
1.14684e-05
1.14684e-05
8.8481e-14
2.02036e-06
2.02036e-06
-4.64596e-14
3.85292e-06
3.85292e-06
-2.25643e-14
4.91043e-07
1.54809e-05
4.91043e-07
1.54809e-05
4.70237e-14
2.00784e-06
2.49221e-07
2.00784e-06
2.49221e-07
5.32032e-14
1.13088e-05
-4.13337e-06
1.13088e-05
-4.13337e-06
5.71191e-15
2.33536e-06
8.83599e-08
2.33536e-06
8.836e-08
1.77559e-14
-1.10517e-05
-1.10517e-05
6.28961e-14
-2.28535e-07
-2.28535e-07
5.53649e-14
-2.17962e-05
-2.17962e-05
4.11002e-15
-2.64486e-07
-2.64486e-07
-2.48213e-14
2.28334e-05
2.28334e-05
-2.15581e-14
9.82495e-06
9.82495e-06
1.81112e-14
2.46771e-07
2.46771e-07
2.92929e-14
2.49189e-07
2.49189e-07
2.72962e-14
-5.11922e-06
-5.11922e-06
-9.45712e-15
-1.47111e-05
-1.47111e-05
1.59584e-14
-2.87615e-06
-2.87615e-06
1.21375e-13
-8.51854e-06
-8.51854e-06
-1.75274e-14
5.53261e-06
5.53261e-06
1.24559e-13
-1.38831e-07
-1.38831e-07
1.34428e-13
-6.25737e-06
-6.25737e-06
8.13152e-14
-1.60392e-07
-1.60392e-07
-1.00139e-13
6.24907e-06
6.24907e-06
-8.17064e-14
-5.71386e-06
-5.71386e-06
7.86121e-14
1.57067e-07
1.57067e-07
-2.41088e-15
1.45093e-07
1.45093e-07
-4.33893e-14
-1.18458e-05
-1.18458e-05
-7.21088e-14
-5.54564e-07
-5.54564e-07
-6.59486e-14
1.13924e-05
1.13924e-05
-1.7294e-14
1.59893e-07
1.59893e-07
-1.00071e-13
-4.13699e-06
-4.01075e-06
-4.13699e-06
-4.01075e-06
-1.0214e-13
3.07335e-06
-9.36411e-06
3.07335e-06
-9.36411e-06
1.32533e-13
-9.22778e-06
-9.22778e-06
5.88195e-14
-9.95985e-08
-9.95985e-08
-3.80176e-14
9.0186e-06
-7.70436e-07
9.01861e-06
-7.70436e-07
-2.99297e-14
2.67673e-06
1.71849e-06
2.67673e-06
1.71849e-06
-8.56117e-15
8.55065e-06
2.25983e-06
8.55065e-06
2.25983e-06
-9.35479e-14
4.02314e-06
5.6136e-06
4.02314e-06
5.6136e-06
1.08376e-14
7.51011e-07
7.51011e-07
4.28888e-14
1.80137e-06
1.80137e-06
5.91077e-14
4.46618e-06
4.46618e-06
1.10404e-14
3.98324e-06
3.98324e-06
6.34769e-14
2.18022e-08
2.18022e-08
7.30643e-14
5.58529e-06
5.58529e-06
1.18113e-13
-2.35458e-07
-2.35458e-07
8.59997e-14
4.52491e-06
4.52491e-06
3.35908e-14
-7.05245e-07
-7.05245e-07
1.10301e-13
-4.20651e-06
-4.20651e-06
1.15332e-13
-1.07296e-06
-1.07296e-06
6.73546e-15
-2.73571e-05
-2.73571e-05
1.18399e-13
5.32982e-06
2.52328e-05
5.32982e-06
2.52328e-05
9.37526e-14
-3.86881e-08
8.99659e-07
-3.86883e-08
8.99659e-07
4.2449e-14
1.67983e-05
1.67983e-05
-5.73348e-14
3.06005e-06
3.06005e-06
1.19263e-13
9.04198e-08
6.09296e-07
9.04198e-08
6.09296e-07
5.10254e-14
6.57728e-06
4.18162e-06
6.57728e-06
4.18162e-06
-6.50074e-15
1.04302e-05
1.04302e-05
3.72387e-14
2.11078e-06
2.11078e-06
7.88041e-14
1.10206e-05
1.10206e-05
1.07849e-13
-1.86642e-06
-1.86642e-06
-1.59941e-14
1.63443e-06
1.63443e-06
-6.71971e-14
-2.41089e-06
-2.41089e-06
-2.90207e-14
-4.81833e-06
-4.54578e-06
-4.81833e-06
-4.54578e-06
-6.65715e-14
-8.91165e-06
-8.91165e-06
3.26223e-14
9.38109e-15
-5.53824e-14
-3.47657e-06
-3.47657e-06
3.08345e-15
-7.11781e-07
-7.11781e-07
-7.34601e-15
-1.66969e-05
-1.66969e-05
-1.12888e-14
-6.97328e-07
-6.97328e-07
-1.66896e-14
1.54478e-05
1.54478e-05
8.35139e-14
7.2708e-07
7.2708e-07
3.9897e-14
4.91525e-06
4.91525e-06
2.02706e-14
6.79092e-07
6.79092e-07
7.41058e-14
9.21549e-06
9.21549e-06
2.37803e-14
-1.93144e-06
-1.93144e-06
1.02365e-13
-1.2815e-05
-1.2815e-05
6.78602e-14
-4.93269e-06
-4.93269e-06
-2.69075e-14
-5.59508e-14
9.79261e-14
5.56999e-15
1.4403e-13
-8.73692e-06
-8.73692e-06
-3.34249e-14
-3.91317e-06
-3.91317e-06
-1.45571e-13
-9.49183e-07
-9.49183e-07
1.22687e-13
-3.93099e-06
-3.93099e-06
6.93633e-14
1.02501e-05
1.02501e-05
1.06478e-13
3.93408e-07
3.93408e-07
2.12126e-14
3.35293e-06
3.35293e-06
-8.41428e-14
3.20271e-06
3.20271e-06
-1.38413e-14
-2.19405e-07
1.02737e-05
-2.19405e-07
1.02737e-05
-4.81836e-14
-2.90478e-06
2.02954e-06
-2.90478e-06
2.02954e-06
-1.8286e-14
-3.35093e-06
-4.76522e-06
-3.35093e-06
-4.76522e-06
5.82743e-15
-4.89073e-06
1.01085e-06
-4.89073e-06
1.01085e-06
4.57691e-14
-1.07817e-05
-1.53677e-06
-1.07817e-05
-1.53677e-06
1.1177e-14
-2.24951e-06
1.88363e-06
-2.24951e-06
1.88363e-06
1.09865e-14
-1.50866e-06
5.7144e-06
-1.50866e-06
5.7144e-06
4.17873e-14
-2.29522e-06
2.92014e-06
-2.29522e-06
2.92014e-06
-4.56683e-14
3.14518e-06
3.14518e-06
4.58982e-14
4.10415e-06
4.10415e-06
-1.45344e-14
1.20407e-06
1.20407e-06
1.32851e-14
-1.95726e-06
-1.95726e-06
1.06322e-14
1.00307e-05
1.00307e-05
-4.42375e-15
4.48147e-07
4.48147e-07
6.53784e-14
-2.95752e-06
-2.95752e-06
-6.43085e-14
-1.68802e-06
-1.68802e-06
-9.40586e-14
-9.73394e-06
-9.73394e-06
2.20894e-14
-8.72173e-07
-8.72173e-07
-2.87385e-14
-1.11643e-05
-1.11643e-05
-2.97119e-14
-8.3616e-07
-8.36159e-07
-1.31242e-13
-3.31726e-14
1.91465e-14
-2.53988e-14
5.74665e-14
4.481e-14
8.91189e-14
2.99451e-14
1.23835e-13
1.01158e-05
1.01158e-05
5.00381e-14
2.26576e-13
-6.19134e-06
-2.52328e-05
-6.19134e-06
-2.52328e-05
1.49289e-13
-1.08601e-06
-8.99658e-07
-1.08601e-06
-8.99658e-07
1.66456e-13
-4.38706e-07
-6.09295e-07
-4.38706e-07
-6.09296e-07
1.06144e-13
4.56058e-08
-4.18162e-06
4.56057e-08
-4.18162e-06
5.78216e-14
1.04758e-05
1.04758e-05
2.02414e-14
1.67207e-06
1.67207e-06
2.70857e-14
1.06069e-05
1.06069e-05
-2.74747e-14
1.97404e-06
1.97404e-06
2.40016e-14
-1.68304e-14
3.73928e-14
-3.38664e-14
5.1647e-14
-6.29503e-14
-7.80286e-15
4.57067e-15
-1.25676e-13
-1.14808e-13
-9.63492e-14
1.13412e-13
1.21667e-13
1.74399e-14
-5.54171e-14
1.09502e-13
4.56045e-13
4.35041e-06
4.35041e-06
1.17297e-13
)
;

boundaryField
{
    frontAndBack
    {
        type            empty;
        value           nonuniform 0();
    }
    movingWall
    {
        type            calculated;
        value           uniform 0;
    }
    fixedWalls
    {
        type            calculated;
        value           uniform 0;
    }
}


// ************************************************************************* //
