/*--------------------------------*- C++ -*----------------------------------*\
| =========                 |                                                 |
| \\      /  F ield         | OpenFOAM: The Open Source CFD Toolbox           |
|  \\    /   O peration     | Version:  4.1                                   |
|   \\  /    A nd           | Web:      www.OpenFOAM.org                      |
|    \\/     M anipulation  |                                                 |
\*---------------------------------------------------------------------------*/
FoamFile
{
    version     2.0;
    format      ascii;
    class       volVectorField;
    location    "0.3";
    object      U;
}
// * * * * * * * * * * * * * * * * * * * * * * * * * * * * * * * * * * * * * //

dimensions      [0 1 -1 0 0 0 0];

internalField   nonuniform List<vector> 
500
(
(-0.195718 -0.0895698 1.15563e-07)
(-0.195718 -0.0895698 -1.15563e-07)
(0.123131 -0.171593 -0.296771)
(0.123131 -0.171593 0.296771)
(-0.000336224 -0.000729539 -0.00139573)
(-0.000336226 -0.00072954 0.00139573)
(0.368507 0.0545784 0.217955)
(0.368507 0.0545784 -0.217955)
(-0.000865152 0.000494087 0.00443939)
(-0.000865154 0.000494087 -0.00443939)
(0.38029 -0.0544492 -0.246216)
(0.38029 -0.0544492 0.246216)
(-0.000762434 -0.000329175 -0.0015769)
(-0.000762435 -0.000329174 0.0015769)
(0.0978211 0.167965 0.267978)
(0.0978211 0.167965 -0.267978)
(-0.000496615 0.000860867 0.00423097)
(-0.000496617 0.000860868 -0.00423097)
(-0.187225 -0.0998284 0.000556176)
(-0.187225 -0.0998284 -0.000556176)
(-0.135814 0.127978 0.0100356)
(-0.135814 0.127978 -0.0100356)
(-0.112121 0.0528771 0.0162064)
(-0.112121 0.0528771 -0.0162064)
(-0.140784 -0.0202957 -0.000460219)
(-0.140784 -0.0202957 0.000460219)
(-0.172445 -0.185683 -0.00523521)
(-0.172445 -0.185683 0.00523521)
(-0.178712 0.0419834 0.00343858)
(-0.178712 0.0419834 -0.00343858)
(-0.197732 -0.00887145 0.00875235)
(-0.197732 -0.00887145 -0.00875235)
(-0.171394 0.0755522 0.00606214)
(-0.171394 0.0755522 -0.00606214)
(-0.181514 0.0175432 0.010737)
(-0.181514 0.0175432 -0.010737)
(-0.121499 0.152386 0.0114987)
(-0.121499 0.152386 -0.0114987)
(-0.0465754 0.0353459 0.0109867)
(-0.0465754 0.0353459 -0.0109867)
(-0.125933 -0.0125893 -0.000435211)
(-0.125933 -0.0125893 0.000435211)
(-0.15688 -0.200274 -0.00744312)
(-0.15688 -0.200274 0.00744312)
(-0.173826 -0.0582866 -0.000109235)
(-0.173826 -0.0582866 0.000109235)
(-0.0161938 0.0798182 0.0188121)
(-0.0161938 0.0798182 -0.0188121)
(0.77832 -0.000656127 0.00393572)
(0.77832 -0.000656128 -0.00393572)
(-0.0250265 0.00139348 0.0027693)
(-0.0250265 0.00139348 -0.0027693)
(-0.0150988 -0.0540083 -0.00507337)
(-0.0150988 -0.0540083 0.00507337)
(-0.0292787 0.13704 0.0227118)
(-0.0292787 0.13704 -0.0227118)
(0.657843 -0.0179938 -0.00539927)
(0.657843 -0.0179938 0.00539927)
(-0.0340198 0.0032104 0.00489016)
(-0.0340198 0.0032104 -0.00489016)
(-0.0198523 -0.062565 -0.000527346)
(-0.0198523 -0.062565 0.000527346)
(-0.159765 0.00564295 0.00723387)
(-0.159765 0.00564295 -0.00723387)
(-0.180566 -0.125858 -0.000836664)
(-0.180566 -0.125858 0.000836664)
(-0.153481 0.0745567 0.00465418)
(-0.153481 0.0745567 -0.00465418)
(-0.160857 -0.0660292 0.000276044)
(-0.160857 -0.0660292 -0.000276044)
(-0.177372 -0.031688 0.00165176)
(-0.177372 -0.031688 -0.00165176)
(-0.200649 0.00151229 0.00523191)
(-0.200649 0.00151228 -0.00523191)
(-0.18852 0.0321014 0.00307641)
(-0.18852 0.0321014 -0.00307641)
(-0.058327 0.208575 0.024033)
(-0.058327 0.208575 -0.024033)
(0.423755 -0.0517161 -0.0027363)
(0.423755 -0.0517161 0.0027363)
(-0.0528221 0.00638767 0.00354314)
(-0.0528221 0.00638767 -0.00354314)
(-0.0302644 -0.0879891 -0.00103031)
(-0.0302645 -0.0879891 0.00103031)
(-0.02585 -0.187501 -0.0595199)
(-0.02585 -0.187501 0.0595199)
(-0.0097565 -0.00358914 -0.00270099)
(-0.0097565 -0.00358915 0.00270099)
(0.702438 0.0404811 0.0430485)
(0.702438 0.0404811 -0.0430485)
(-0.00546121 0.0119622 0.00336902)
(-0.00546122 0.0119622 -0.00336902)
(-0.0217746 0.166481 0.0591748)
(-0.0217746 0.166481 -0.0591748)
(0.714008 -0.0311702 -0.0378191)
(0.714008 -0.0311702 0.0378191)
(-0.0103073 0.00350405 0.00540413)
(-0.0103073 0.00350405 -0.00540413)
(-0.00549272 -0.0117535 -0.00023915)
(-0.00549272 -0.0117535 0.00023915)
(-0.0702129 0.0912019 0.00800874)
(-0.0702129 0.0912019 -0.00800874)
(0.023582 0.15223 0.038126)
(0.023582 0.15223 -0.038126)
(-0.0841322 -0.0324901 -0.00431713)
(-0.0841322 -0.0324901 0.00431713)
(-0.145278 -0.290598 -0.0276851)
(-0.145278 -0.290598 0.0276851)
(-0.0853569 0.078029 0.00564284)
(-0.0853569 0.078029 -0.00564284)
(-0.0695453 0.193053 0.0403917)
(-0.0695453 0.193053 -0.0403917)
(-0.0911468 -0.0445375 -0.00347356)
(-0.0911468 -0.0445375 0.00347356)
(-0.147049 -0.263105 -0.022351)
(-0.147049 -0.263105 0.022351)
(-0.0218752 0.0922811 0.0117735)
(-0.0218752 0.0922811 -0.0117735)
(0.654934 0.00817592 0.0153586)
(0.654934 0.00817592 -0.0153586)
(-0.0381757 -0.000127656 0.000557288)
(-0.0381757 -0.000127657 -0.000557288)
(-0.0247386 -0.105949 -0.00702265)
(-0.0247386 -0.105949 0.00702265)
(-0.0912642 0.309821 0.0483841)
(-0.0912642 0.309821 -0.0483841)
(-0.0510104 0.0191721 0.00536667)
(-0.0510104 0.0191721 -0.00536667)
(0.168027 -0.126784 -0.0358818)
(0.168027 -0.126784 0.0358818)
(-0.037158 -0.0588419 -0.00113758)
(-0.037158 -0.0588419 0.00113758)
(-0.0685586 0.171235 0.0169035)
(-0.0685586 0.171235 -0.0169035)
(0.230848 0.0240196 0.00202697)
(0.230848 0.0240196 -0.00202697)
(-0.0834101 0.000524517 0.00187058)
(-0.0834101 0.000524517 -0.00187058)
(-0.0833841 -0.181177 -0.00998641)
(-0.0833841 -0.181177 0.00998641)
(-0.134228 0.0492432 0.00539408)
(-0.134228 0.0492432 -0.00539408)
(-0.172353 0.180948 0.0211354)
(-0.172353 0.180948 -0.0211354)
(-0.144409 -0.100827 -0.00612348)
(-0.144409 -0.100827 0.00612348)
(-0.140953 -0.0977217 -0.00526685)
(-0.140953 -0.0977217 0.00526685)
(0.0697652 0.216808 0.0551364)
(0.0697652 0.216808 -0.0551364)
(-0.0306531 0.0386366 0.0062197)
(-0.0306531 0.0386366 -0.0062197)
(-0.110897 -0.350901 -0.0669622)
(-0.110897 -0.350901 0.0669622)
(-0.0371324 -0.0234198 -0.0023546)
(-0.0371324 -0.0234198 0.0023546)
(-0.153697 0.20763 0.0263621)
(-0.153697 0.20763 -0.0263621)
(-0.114799 0.054084 0.00460572)
(-0.114799 0.054084 -0.00460572)
(-0.124537 -0.140327 -0.004388)
(-0.124537 -0.140327 0.004388)
(-0.116835 -0.0908348 -0.00269824)
(-0.116835 -0.0908348 0.00269824)
(-0.186738 0.11564 0.011777)
(-0.186738 0.11564 -0.011777)
(-0.191537 -0.0896905 0.000624875)
(-0.191537 -0.0896905 -0.000624875)
(-0.178519 0.0993838 0.0118521)
(-0.178519 0.0993838 -0.0118521)
(-0.198421 -0.116175 -0.00333183)
(-0.198421 -0.116175 0.00333183)
(0.833945 0.00431048 0.0089745)
(0.833945 0.00431048 -0.0089745)
(-0.0080791 0.0379808 0.00723682)
(-0.0080791 0.0379808 -0.00723682)
(-0.0179338 -0.000937721 0.000405485)
(-0.0179338 -0.000937721 -0.000405485)
(-0.0118897 -0.0668784 -0.00853579)
(-0.0118897 -0.0668784 0.00853579)
(-0.0979483 0.146614 0.00853346)
(-0.0979483 0.146614 -0.00853346)
(0.0426727 0.0486146 0.0158049)
(0.0426727 0.0486146 -0.0158049)
(-0.105471 -0.0134663 0.00169822)
(-0.105471 -0.0134663 -0.00169822)
(-0.136225 -0.227145 -0.0120624)
(-0.136225 -0.227145 0.0120624)
(-0.0501888 -0.297946 -0.0777691)
(-0.0501888 -0.297946 0.0777691)
(-0.010943 -0.0050532 -0.00347965)
(-0.010943 -0.00505321 0.00347965)
(0.491839 0.0867586 0.0554104)
(0.491839 0.0867586 -0.0554104)
(-0.00694933 0.0127663 0.00246026)
(-0.00694934 0.0127663 -0.00246026)
(-0.0442165 0.264635 0.0738301)
(-0.0442165 0.264635 -0.0738301)
(0.521483 -0.0760478 -0.0539801)
(0.521483 -0.0760478 0.0539801)
(-0.0114848 0.00496276 0.00605114)
(-0.0114848 0.00496276 -0.00605114)
(-0.00681261 -0.0120642 0.000519934)
(-0.00681261 -0.0120642 -0.000519934)
(-0.0368879 0.0616233 0.00467928)
(-0.0368879 0.0616233 -0.00467928)
(0.152353 0.134033 0.0547933)
(0.152353 0.134033 -0.0547933)
(-0.051744 -0.0216353 -0.00261184)
(-0.051744 -0.0216353 0.00261184)
(-0.108092 -0.336452 -0.0443098)
(-0.108092 -0.336452 0.0443098)
(-0.102862 0.323639 0.0687877)
(-0.102862 0.323639 -0.0687877)
(-0.0370493 0.0219557 0.00564363)
(-0.0370493 0.0219557 -0.00564363)
(0.0919512 -0.21012 -0.0450086)
(0.0919512 -0.21012 0.0450086)
(-0.0295881 -0.0376059 -0.00228682)
(-0.0295881 -0.0376059 0.00228682)
(-0.00614609 -0.227519 -0.109608)
(-0.00614609 -0.227519 0.109608)
(-0.00245435 -0.00168063 -0.00222626)
(-0.00245435 -0.00168063 0.00222626)
(0.63856 0.0388302 0.0685658)
(0.63856 0.0388302 -0.0685658)
(-0.00208495 0.00298295 0.00277017)
(-0.00208495 0.00298295 -0.00277017)
(0.657857 -0.0347897 -0.0759185)
(0.657857 -0.0347897 0.0759185)
(-0.00900345 0.20372 0.0993325)
(-0.00900345 0.20372 -0.0993325)
(-0.00203911 -0.00266669 -0.000302195)
(-0.00203911 -0.00266669 0.000302195)
(-0.00280995 0.00174574 0.00458744)
(-0.00280995 0.00174574 -0.00458744)
(-0.0390144 0.132656 0.0115616)
(-0.0390144 0.132656 -0.0115616)
(0.381746 0.035631 0.0147334)
(0.381746 0.035631 -0.0147334)
(-0.0656591 -0.000873766 0.00126252)
(-0.0656591 -0.000873766 -0.00126252)
(-0.0581174 -0.17815 -0.012442)
(-0.0581174 -0.17815 0.012442)
(-0.0125124 -0.401868 -0.1683)
(-0.0125124 -0.401868 0.1683)
(-0.00357877 -0.00232776 -0.00269042)
(-0.00357877 -0.00232776 0.00269042)
(0.268064 0.108727 0.118797)
(0.268064 0.108727 -0.118797)
(-0.00257491 0.00404591 0.00372856)
(-0.00257491 0.00404591 -0.00372856)
(0.299729 -0.108335 -0.132525)
(0.299729 -0.108335 0.132525)
(-0.0243267 0.371223 0.153595)
(-0.0243267 0.371223 -0.153595)
(-0.00247377 -0.00363071 -0.000568479)
(-0.00247377 -0.00363071 0.000568479)
(-0.00399768 0.00255569 0.00578474)
(-0.00399767 0.00255569 -0.00578474)
(-0.0608267 0.267159 0.0529544)
(-0.0608267 0.267159 -0.0529544)
(-0.0451822 0.038847 0.00526262)
(-0.0451822 0.038847 -0.00526262)
(-0.0649077 -0.275672 -0.0487283)
(-0.0649077 -0.275672 0.0487283)
(-0.0449405 -0.0386738 -0.0020575)
(-0.0449405 -0.0386738 0.0020575)
(-0.139881 0.0296761 0.00437797)
(-0.139881 0.0296761 -0.00437797)
(-0.162734 0.176225 0.0169057)
(-0.162734 0.176225 -0.0169057)
(-0.15219 -0.123785 -0.00619075)
(-0.15219 -0.123785 0.00619075)
(-0.12404 -0.0460593 -0.00276172)
(-0.12404 -0.0460593 0.00276172)
(-0.086465 0.198182 0.0175596)
(-0.086465 0.198182 -0.0175596)
(-0.0857494 0.00712059 0.00259066)
(-0.0857494 0.00712059 -0.00259066)
(0.200456 -0.00331556 0.00270887)
(0.200456 -0.00331556 -0.00270887)
(-0.0841054 -0.160855 -0.0100061)
(-0.0841054 -0.160855 0.0100061)
(-0.0771775 0.220467 0.0160076)
(-0.0771775 0.220467 -0.0160076)
(-0.0704313 0.010511 0.00230336)
(-0.0704313 0.010511 -0.00230336)
(0.271937 -0.0377528 0.0112477)
(0.271937 -0.0377528 -0.0112477)
(-0.052471 -0.122127 -0.00427166)
(-0.052471 -0.122127 0.00427166)
(-0.0422421 0.0110279 0.00564589)
(-0.0422421 0.0110279 -0.00564589)
(-0.0611947 0.260393 0.037734)
(-0.0611947 0.260393 -0.037734)
(-0.0248388 -0.0551555 -0.00181777)
(-0.0248388 -0.0551555 0.00181777)
(0.374122 -0.0573233 -0.0155874)
(0.374122 -0.0573233 0.0155874)
(-0.0223157 0.00588955 0.005862)
(-0.0223157 0.00588955 -0.005862)
(-0.0371583 0.20061 0.0439263)
(-0.0371583 0.20061 -0.0439263)
(-0.0106092 -0.0289714 0.000207699)
(-0.0106092 -0.0289714 -0.000207699)
(0.613862 -0.0348732 -0.0129679)
(0.613862 -0.0348732 0.0129679)
(0.604728 0.0415414 0.027078)
(0.604728 0.0415414 -0.027078)
(-0.00986233 0.0289722 0.0030097)
(-0.00986233 0.0289722 -0.0030097)
(0.353239 0.0642003 0.0320995)
(0.353239 0.0642003 -0.0320995)
(-0.0236649 0.0588076 0.00445883)
(-0.0236649 0.0588076 -0.00445883)
(-0.0216549 -0.00593065 -0.00295207)
(-0.0216549 -0.00593065 0.00295207)
(-0.0452868 -0.22044 -0.0402744)
(-0.0452868 -0.22044 0.0402744)
(-0.0752869 -0.282466 -0.0322506)
(-0.0752869 -0.282466 0.0322506)
(-0.0439271 -0.0121752 -0.00297856)
(-0.0439271 -0.0121752 0.00297856)
(-0.143382 0.191153 0.0163383)
(-0.143382 0.191153 -0.0163383)
(-0.0450824 -0.0282186 0.00348365)
(-0.0450824 -0.0282186 -0.00348365)
(-0.124968 0.015868 0.00359176)
(-0.124968 0.015868 -0.00359176)
(-0.132154 -0.153723 -0.00529125)
(-0.132154 -0.153723 0.00529125)
(-0.175877 0.125921 0.0128537)
(-0.175877 0.125921 -0.0128537)
(-0.163382 0.0153454 0.00436036)
(-0.163382 0.0153454 -0.00436036)
(-0.165504 0.118067 0.0113745)
(-0.165504 0.118067 -0.0113745)
(-0.164371 -0.00621062 0.00209323)
(-0.164371 -0.00621062 -0.00209323)
(0.146309 0.205149 0.0570598)
(0.146309 0.205149 -0.0570598)
(-0.0161656 0.0234184 0.00417428)
(-0.0161656 0.0234184 -0.00417428)
(-0.0964314 -0.362769 -0.0668169)
(-0.0964314 -0.362769 0.0668169)
(-0.0217207 -0.0130464 -0.00193567)
(-0.0217207 -0.0130464 0.00193567)
(-0.0930367 0.33113 0.0679408)
(-0.0930367 0.33113 -0.0679408)
(-0.0221583 0.01276 0.00465747)
(-0.0221583 0.01276 -0.00465747)
(0.178838 -0.203115 -0.0535328)
(0.178838 -0.203115 0.0535328)
(-0.0158192 -0.0224605 -0.00101016)
(-0.0158192 -0.0224605 0.00101016)
(-0.145058 0.118572 0.0226634)
(-0.145058 0.118572 -0.0226634)
(-0.131671 0.100086 0.00894483)
(-0.131671 0.100086 -0.00894483)
(-0.181727 -0.186078 -0.0107116)
(-0.181727 -0.186078 0.0107116)
(-0.137788 -0.0446306 -0.000950013)
(-0.137788 -0.0446306 0.000950013)
(-0.12495 0.178128 0.0293634)
(-0.12495 0.178128 -0.0293634)
(-0.107531 0.0841854 0.00544016)
(-0.107531 0.0841854 -0.00544016)
(-0.165688 -0.208154 -0.0175952)
(-0.165688 -0.208154 0.0175952)
(-0.115407 -0.0553291 -0.00232591)
(-0.115407 -0.0553291 0.00232591)
(-0.0937083 0.254769 0.0400595)
(-0.0937083 0.254769 -0.0400595)
(-0.0698522 0.0519566 0.00666945)
(-0.0698522 0.0519566 -0.00666945)
(-0.0998821 -0.25224 -0.0308935)
(-0.0998821 -0.25224 0.0308935)
(-0.0689095 -0.0540364 -0.00283495)
(-0.0689095 -0.0540364 0.00283495)
(-0.130116 0.213598 0.0160582)
(-0.130116 0.213598 -0.0160582)
(0.0351032 -0.0401618 -0.00207811)
(0.0351032 -0.0401618 0.00207811)
(-0.106881 0.0163183 0.00150503)
(-0.106881 0.0163183 -0.00150503)
(-0.112302 -0.148335 -0.00240837)
(-0.112302 -0.148335 0.00240837)
(-0.14054 0.240372 0.0213416)
(-0.14054 0.240372 -0.0213416)
(-0.0998597 0.0438626 0.00434786)
(-0.0998597 0.0438626 -0.00434786)
(-0.0666325 -0.14559 -0.0050176)
(-0.0666325 -0.14559 0.0050176)
(-0.098494 -0.092042 -0.000897621)
(-0.098494 -0.092042 0.000897621)
(-0.114104 0.291471 0.0294868)
(-0.114104 0.291471 -0.0294868)
(-0.0686273 0.0266514 0.00365364)
(-0.0686273 0.0266514 -0.00365364)
(0.0764443 -0.141345 -0.0135678)
(0.0764443 -0.141345 0.0135678)
(-0.0549719 -0.0766845 -0.00160928)
(-0.0549719 -0.0766845 0.00160928)
(-0.072665 0.115662 0.0101563)
(-0.072665 0.115662 -0.0101563)
(0.0936428 0.0810019 0.0270399)
(0.0936428 0.0810019 -0.0270399)
(-0.0911829 -0.0196483 0.000102636)
(-0.0911829 -0.0196483 -0.000102636)
(-0.123974 -0.263667 -0.0212063)
(-0.123974 -0.263667 0.0212063)
(-0.126538 0.247512 0.0205704)
(-0.126538 0.247512 -0.0205704)
(-0.0956328 0.0268551 0.00289236)
(-0.0956328 0.0268551 -0.00289236)
(0.0362289 -0.0888724 -0.00409136)
(0.0362289 -0.0888724 0.00409136)
(-0.0906504 -0.11667 -0.00304893)
(-0.0906504 -0.11667 0.00304893)
(0.0504673 0.2528 0.0746784)
(0.0504673 0.2528 -0.0746784)
(-0.0108284 0.0128445 0.00499262)
(-0.0108284 0.0128445 -0.00499262)
(-0.0578553 -0.35381 -0.0909563)
(-0.0578553 -0.35381 0.0909563)
(-0.0125001 -0.00951955 -0.00135821)
(-0.0125001 -0.00951955 0.00135821)
(-0.0722633 0.328749 0.0884477)
(-0.0722633 0.328749 -0.0884477)
(0.080758 -0.263113 -0.0770819)
(0.080758 -0.263113 0.0770819)
(-0.0131571 0.00986204 0.00427272)
(-0.0131571 0.00986204 -0.00427272)
(-0.0104373 -0.0121448 -0.00197202)
(-0.0104373 -0.0121448 0.00197202)
(-0.110487 0.260209 0.0216565)
(-0.110487 0.260209 -0.0216565)
(-0.0837112 0.0230439 0.00275599)
(-0.0837112 0.0230439 -0.00275599)
(0.0926904 -0.0807737 -0.00709701)
(0.0926904 -0.0807737 0.00709701)
(-0.0726576 -0.109825 -0.00242275)
(-0.0726576 -0.109825 0.00242275)
(-0.200035 0.0489939 0.00805924)
(-0.200035 0.0489939 -0.00805924)
(-0.192719 0.0948774 0.0121175)
(-0.192719 0.0948774 -0.0121175)
(0.693914 0.0213834 0.0189258)
(0.693914 0.0213834 -0.0189258)
(-0.00880429 0.0472779 0.00425132)
(-0.00880429 0.0472779 -0.00425132)
(-0.0282775 -0.00148459 -0.00164288)
(-0.0282775 -0.00148459 0.00164288)
(-0.024447 -0.137861 -0.0163376)
(-0.024447 -0.137861 0.0163376)
(-0.0598077 -0.231239 -0.0220996)
(-0.0598077 -0.231239 0.0220996)
(-0.0506278 -0.0064607 1.23276e-05)
(-0.0506278 -0.0064607 -1.23276e-05)
(0.422233 0.0489517 0.0182237)
(0.422233 0.0489517 -0.0182237)
(-0.0224001 0.0778048 0.00701596)
(-0.0224001 0.0778048 -0.00701596)
(0.853939 0.0126002 0.0156199)
(0.853939 0.0126002 -0.0156199)
(-0.00311467 0.0163265 0.00193939)
(-0.00311466 0.0163265 -0.00193939)
(-0.0106783 -0.00115188 -0.00193611)
(-0.0106783 -0.00115188 0.00193611)
(-0.0123924 -0.081585 -0.0177302)
(-0.0123924 -0.081585 0.0177302)
(-0.0115429 0.0791666 0.0226117)
(-0.0115429 0.0791666 -0.0226117)
(0.848588 -0.00809437 -0.00405414)
(0.848588 -0.00809438 0.00405414)
(-0.0117036 0.00195757 0.0038918)
(-0.0117036 0.00195757 -0.0038918)
(-0.00583982 -0.0183633 0.000179685)
(-0.00583982 -0.0183633 -0.000179685)
(-0.0398273 0.10567 0.00911364)
(-0.0398273 0.10567 -0.00911364)
(0.309543 0.0496962 0.0142556)
(0.309543 0.0496962 -0.0142556)
(-0.0671317 -0.00870482 -0.000115422)
(-0.0671317 -0.00870482 0.000115422)
(-0.0792306 -0.235667 -0.0172798)
(-0.0792306 -0.235667 0.0172798)
(-0.119671 0.267955 0.0269437)
(-0.119671 0.267955 -0.0269437)
(-0.0794917 0.0422472 0.00394309)
(-0.0794917 0.0422472 -0.00394309)
(-0.0483792 -0.184652 -0.0157704)
(-0.0483792 -0.184652 0.0157704)
(-0.0737428 -0.071806 -0.00284009)
(-0.0737428 -0.071806 0.00284009)
(-0.198511 -0.0309387 0.00387038)
(-0.198511 -0.0309387 -0.00387038)
(-0.188572 -0.0072886 0.00223423)
(-0.188572 -0.00728859 -0.00223423)
)
;

boundaryField
{
    frontAndBack
    {
        type            empty;
    }
    movingWall
    {
        type            fixedValue;
        value           uniform (1 0 0);
    }
    fixedWalls
    {
        type            noSlip;
    }
}


// ************************************************************************* //
