/*--------------------------------*- C++ -*----------------------------------*\
| =========                 |                                                 |
| \\      /  F ield         | OpenFOAM: The Open Source CFD Toolbox           |
|  \\    /   O peration     | Version:  4.1                                   |
|   \\  /    A nd           | Web:      www.OpenFOAM.org                      |
|    \\/     M anipulation  |                                                 |
\*---------------------------------------------------------------------------*/
FoamFile
{
    version     2.0;
    format      ascii;
    class       volScalarField;
    location    "5";
    object      T;
}
// * * * * * * * * * * * * * * * * * * * * * * * * * * * * * * * * * * * * * //

dimensions      [0 0 0 1 0 0 0];

internalField   nonuniform List<scalar> 
26625
(
-2.25219e-15
-4.09401e-05
1.40263
0.00674592
5.29295e-17
-1.53066e-14
-6.16756e-07
-1.12851e-13
0.000225637
0.0497091
2.18979e-22
-0.0006564
-4.12224e-15
2.5285e-06
1.35257
-3.33426e-15
7.93466e-08
1.14347
1.59799
0.00313702
-3.52057e-12
1.89035e-10
-8.2647e-23
9.22239e-07
-2.42496e-13
0.507532
0.000940679
1.70563e-08
-3.22824e-15
3.83428e-05
1.54599
0.738469
-0.0565935
0.970879
2.09122e-17
1.36492e-18
3.77123e-09
1.47703
3.13573e-06
1.87377e-08
8.70764e-08
0.914162
3.90476e-06
0.00012913
-8.52404e-14
0.00139859
2.43506e-08
1.60745
1.77703e-08
-8.04491e-21
0.0060983
0.993177
-0.000855931
3.65111e-13
0.992378
6.40437e-05
0.00177592
0.00642915
1.84167e-10
1.48894
-3.21597e-28
-3.13754e-16
-1.80643e-13
1.33299e-05
0.87752
9.33385e-26
0.00581612
1.52877
-0.00456849
-3.36288e-06
1.43047
-1.61671e-18
-8.34231e-05
7.85047e-16
-2.20302e-23
6.32632e-05
5.35705e-20
1.67721e-26
0.41735
1.39284
0.947443
2.6214e-07
0.000416178
0.0158875
9.19186e-06
1.07203
-6.7995e-18
7.92408e-26
3.3164e-09
-0.000736015
1.81751
1.46037
0.000374596
1.82354e-05
0.00759376
-0.000951405
0.840171
1.19622
4.73618e-05
0.708832
0.619598
0.924796
1.5126
1.20597
-1.11479e-13
1.0149
-4.11555e-24
1.39181
0.902047
-4.11662e-14
0.004257
6.72095e-10
0.000224757
1.38404
0.686394
1.51342
5.1331e-21
-1.37269e-18
3.79891e-08
1.46928
1.50293
1.04953
1.14557e-19
3.84547e-10
-1.10162e-10
1.36957
0.718169
1.42301e-27
0.00363698
0.548245
1.42374
0.0144316
2.52589e-05
-3.40764e-13
-1.68954e-11
8.61435e-05
5.82181e-06
-1.33148e-25
0.00434938
-1.61458e-10
0.816643
0.030726
-4.32853e-11
-7.9891e-06
1.59719
0.00459985
0.73119
1.60073
2.68825e-07
-2.99311e-26
0.00221408
0.515048
0.213517
-2.17893e-07
-1.65442e-27
0.00684314
0.330386
0.106642
0.849607
1.50121
3.67811e-08
1.04969
0.0865809
1.15837
3.03945e-22
-2.30105e-12
1.56459
0.792484
1.02918e-09
4.3384e-21
0.000322202
9.98773e-22
5.30372e-07
0.000510828
3.63773e-27
0.0540661
0.890531
-4.73309e-07
1.36794
6.97679e-22
-3.06752e-08
-1.96244e-09
3.36948e-21
0.00599021
4.93413e-07
0.863743
-6.96656e-06
0.734954
1.61554
0.568438
-0.000867499
0.0363325
0.00439833
0.820209
0.000444502
2.18641e-17
0.146903
-1.17555e-10
1.16191
7.46415e-19
2.60016e-09
1.49549
3.69805e-20
2.93977e-07
-2.09816e-21
1.53412e-05
0.311641
1.49173
2.96004e-10
-0.000762944
3.46407e-22
0.241723
1.74489e-15
1.01497
-7.29252e-13
0.0340329
-0.000140411
9.35412e-09
1.06199e-07
0.77721
1.46768
5.39525e-22
2.43582e-23
5.06185e-09
2.46669e-07
1.51669
4.34242e-18
0.341233
3.64749e-07
-8.47263e-05
1.35364
1.37216e-07
1.4218
1.42155e-06
5.01169e-22
3.25724e-07
0.00839523
7.26157e-07
-4.61932e-22
0.572375
0.000644669
0.00522368
0.0204195
2.60683e-21
1.06087
9.41378e-06
2.98364e-10
4.64763e-19
-5.13985e-23
0.00274186
1.57139
4.19714e-09
-4.2747e-09
0.0421786
8.65109e-09
4.76457e-09
-2.37235e-25
-2.3841e-12
-1.09146e-05
0.670147
-9.06273e-15
1.71089
0.00225934
2.59975e-06
1.36693
0.0366102
-3.23065e-21
8.9062e-17
-1.51823e-10
0.0309232
1.71143e-06
1.51695
1.27088
3.94634e-07
0.31789
-2.18501e-24
-0.000537579
0.00432433
0.00190187
-1.30907e-07
5.76703e-10
5.56952e-23
0.00213095
0.0712521
0.00781888
1.05045e-20
0.0131061
-1.03602e-15
1.21076
1.84593e-09
-1.59605e-22
2.25798e-11
1.16575
5.37325e-05
0.000241409
-2.8624e-26
-2.74911e-27
0.0279326
-7.33787e-20
1.42749
0.590499
-1.03312e-12
1.46065
-6.02575e-16
0.000726916
4.58403e-28
-5.59479e-19
1.13141e-12
2.06209e-22
2.78308e-10
-4.48693e-09
6.27169e-30
-5.64808e-25
0.00614655
0.00146663
-0.000115977
-1.53248e-05
-1.50008e-08
0.0573715
-7.4888e-06
-1.32077e-27
6.42543e-06
3.16619e-09
1.50299e-09
-3.00749e-26
-7.06659e-08
0.026132
1.58881
-9.42804e-06
3.52221e-07
-0.00262702
-8.41117e-13
0.900569
1.213
0.00237084
2.66402e-09
0.00826218
1.02749e-08
4.95528e-28
0.801276
1.56881
0.464422
0.801786
5.65511e-07
0.000400104
0.0133677
0.00581499
4.28001e-05
2.53084e-09
3.74034e-08
1.52164
5.60554e-08
2.56706e-07
1.69454
2.47314e-06
0.00584166
0.000223652
1.58672
1.16633
1.62177
0.152973
-8.2228e-21
-0.00216855
9.82143e-09
1.53152
6.07556e-06
1.37523e-05
1.31495
0.996272
1.02788e-05
1.55467
1.40866
4.53872e-05
-4.81715e-21
-6.43785e-14
0.67875
2.80841e-06
5.59616e-24
4.77256e-26
0.0334716
0.697926
0.0281864
0.0010451
0.0143506
0.00037843
-0.00849177
1.02319
4.78638e-06
5.20259e-08
1.93984e-07
-1.84445e-24
-1.70178e-12
1.56949e-07
0.0192896
6.65714e-07
0.0490467
0.0345264
1.89419e-07
0.18287
0.0016771
0.00378293
0.977375
0.00901063
1.66125e-20
1.63261e-14
8.05772e-07
1.24225
-9.47496e-11
-1.29243e-07
0.478512
0.00376438
0.575721
-3.74103e-16
-2.05838e-20
3.36272e-06
0.0094555
-0.0169602
0.00703974
0.0188674
1.22843e-17
-3.40331e-23
8.02137e-17
0.806139
1.11083
-8.035e-09
3.11927e-12
0.912608
-0.000202804
6.08311e-21
-0.000268336
0.0619021
0.00189027
1.20532e-06
1.87364e-20
0.0331641
0.018392
3.87972e-23
3.06155e-06
-6.80309e-11
0.0221137
-0.000126355
-1.80374e-19
0.0018046
0.0044016
0.00603647
1.20741e-10
7.99252e-29
0.0116563
8.89522e-09
0.00757272
-0.00109427
0.846622
3.88729e-21
0.706152
3.9321e-10
3.39617e-10
1.08085e-05
1.256e-22
-1.13021e-14
1.34027
0.00126886
1.54711
3.98827e-13
0.00177589
-4.74473e-08
-0.00134171
3.67546e-28
-0.000306182
0.000209252
-6.77778e-26
-4.45529e-19
0.357607
3.32438e-07
-0.000124636
-4.21755e-07
-5.94216e-19
0.331692
-0.000298915
-0.013068
-8.55925e-22
0.396735
-1.92686e-15
1.40969
8.21046e-22
2.62249e-09
6.57267e-10
5.80185e-05
0.00342453
0.000124222
-1.54946e-14
0.0672395
0.360139
-7.32951e-15
0.00901906
-1.66056e-21
1.55094
0.383227
0.306655
0.000529246
-5.70594e-15
1.54691
1.20428
1.11274
0.000323324
0.321401
-1.54566e-22
2.94395e-06
0.971352
0.00674557
-3.04841e-13
0.00017102
0.993321
0.575143
1.35224
-2.54072e-15
5.13352e-20
-9.56716e-06
5.81429e-11
-2.39547e-12
0.591139
0.609443
1.11722
-1.39773e-24
-2.83581e-07
-8.53994e-06
2.5292e-21
0.523706
0.000361159
-2.68476e-05
4.4448e-13
8.05088e-14
1.41268
0.0462239
-1.87608e-05
0.110706
0.268575
0.0384493
0.000115367
0.00299223
-1.79623e-14
2.68859e-06
1.05249
-6.10644e-21
1.53587
6.40934e-06
9.02013e-05
6.67686e-10
2.21707e-09
6.29309e-14
-4.57401e-16
1.02508
1.39058e-13
1.11782
4.18826e-08
-6.97477e-06
-0.000151069
0.143625
-0.000288117
0.0562631
0.805935
1.02783e-06
6.94478e-08
1.03122
1.41125
-6.06867e-08
1.13577
6.41129e-22
0.00301185
1.25479
1.61462e-20
-1.53222e-12
1.00472e-14
0.0564499
0.000600691
0.224159
1.45061
2.9031e-25
0.906098
3.86404e-18
7.78446e-09
-3.52262e-19
1.01638
4.04414e-08
0.00410485
3.26998e-06
-4.35273e-10
-0.00358229
2.11994e-09
0.0722558
4.07716e-08
1.53596e-06
0.040164
1.57805e-08
2.5218e-23
5.69025e-11
1.30434
0.755712
-0.00153624
-0.000928959
3.97801e-09
-9.67532e-18
-1.96695e-05
0.952028
0.000388785
-1.02507e-19
0.000190494
1.59943
8.03427e-07
0.924396
-2.63727e-08
1.14872
1.20729
-8.52094e-11
0.615025
0.0080298
-0.000559056
0.000603302
1.30977
2.7691e-13
1.16967
0.00117211
-1.31633e-18
8.16681e-06
0.00474091
-0.00153634
1.49643
3.06711e-10
1.83086
-0.00250373
-0.000439058
8.93029e-21
-6.80921e-06
0.000343128
-6.55122e-10
-7.32919e-09
6.95295e-20
5.15304e-07
-0.00396966
4.3658e-05
0.00126564
6.7153e-22
1.21321e-13
0.852525
-7.8746e-14
0.00258981
0.0520138
8.55677e-09
3.83463e-06
-1.25397e-13
-4.27197e-21
0.562841
5.91291e-11
6.57464e-19
1.237
1.47663
0.00752014
5.08338e-09
8.80113e-06
1.34053
0.12885
-4.19101e-17
9.33011e-09
1.32696
-1.6124e-15
0.425289
-0.00454391
0.0851499
1.78258
0.000538915
-4.09674e-20
4.41575e-05
0.0183397
3.89069e-18
1.26647
1.45716e-26
-6.41757e-18
0.0825082
1.63034
1.7163e-08
2.53779e-17
0.0520756
-7.37446e-13
-3.48235e-05
5.78779e-19
-3.27945e-10
-3.08056e-24
1.55384
-2.08172e-10
0.000735774
1.29962e-06
-1.47734e-20
-2.13015e-27
3.13383e-13
2.55688e-09
6.37257e-20
-3.27603e-13
5.79527e-09
1.18903
7.16909e-08
0.00102817
7.43733e-08
2.02913e-05
1.4038e-12
8.1971e-06
-4.31831e-26
0.00401363
1.44601e-16
0.00438151
-0.00123815
0.532113
-9.17942e-26
1.63711
5.62829e-16
4.52918e-26
5.92721e-25
9.90749e-18
1.49178e-25
1.18542
1.76809
5.94508e-06
1.69842e-10
0.369571
0.00549206
1.43568e-27
0.0447503
1.28538
4.02318e-22
0.0258693
5.88322e-11
0.000172066
1.07645e-10
-2.17545e-11
-0.00285201
9.51188e-07
-6.31148e-19
1.47931
1.53643
0.636958
0.000404246
-4.75033e-19
2.85339e-06
9.5605e-06
1.21023
3.51832e-05
2.39758e-10
-6.60578e-26
0.718914
0.000121871
0.000898371
0.572572
0.000124737
1.01694
1.49761
-7.745e-19
1.00695e-08
0.000823028
-1.44686e-11
2.52237e-06
0.000983674
0.0686992
1.73677e-17
5.2582e-10
0.00678223
5.82114e-05
-2.07134e-10
0.00302815
6.87351e-24
1.86527e-19
0.250872
1.66251e-20
-1.07664e-14
-3.79673e-14
0.00968798
0.00776458
-2.23255e-21
1.50881
-2.57765e-11
0.000507287
-6.32943e-14
1.94847
1.03832
7.58714e-14
0.79139
0.000146437
-0.00730395
-1.83524e-12
1.03236e-08
1.48412e-07
1.40888e-14
1.27783e-06
0.518732
5.12213e-06
0.000106824
-4.8377e-05
1.41553
1.48903
0.00951668
1.38287
2.49869e-08
1.72791e-05
0.000235537
7.88745e-05
1.46051
0.000700407
0.637205
1.43673
0.000391905
0.000136281
2.66695e-25
2.31238e-08
1.43821e-21
4.21162e-17
0.856742
-0.000123246
-9.5012e-18
5.41047e-09
-5.7468e-20
0.00011589
0.000228586
0.164625
6.12882e-07
1.25631e-27
-1.02707e-20
1.43662
3.56188e-06
2.6849e-22
1.06819
0.170212
-5.25816e-14
0.00159942
-0.000311656
-9.68372e-11
1.5655
1.5494
1.00786
2.58756e-19
1.18469e-09
0.00878839
1.24547
1.13689e-18
3.0225e-08
-5.04447e-18
0.012269
2.91284e-09
0.0318758
2.96682e-14
-1.46908e-14
1.407
-0.00603367
-4.83996e-19
1.49223
0.00196015
0.011544
-1.74332e-17
-4.38733e-27
0.0773751
2.45456e-07
-4.89535e-10
-0.00352705
1.87856e-05
1.43225
-4.53749e-05
2.3206e-20
1.54359e-10
6.10869e-10
3.11325e-08
0.00977452
0.00262512
5.57509e-22
1.46556
2.07996e-22
0.0184561
1.07056e-11
-8.14438e-13
0.00153525
8.20583e-09
1.59166
-5.57111e-28
1.00674
2.41003e-05
6.70466e-11
9.37083e-13
1.75142e-08
1.42133
0.000357513
4.69528e-09
0.0672104
4.62007e-05
-5.83742e-23
7.3917e-10
1.10546e-19
1.30359e-07
2.89871e-21
-4.48174e-09
8.10446e-20
5.38659e-14
-1.25546e-06
0.00510982
0.0106943
1.69458e-09
4.68468e-06
-1.6188e-21
-2.40778e-18
1.54833
0.0014402
-4.7458e-11
-1.90801e-14
-0.000348915
2.65776e-22
2.54167e-05
1.10678e-09
-0.00129825
-7.40025e-19
1.95425e-27
1.88968e-05
0.328089
-1.37272e-23
-4.19561e-11
8.43941e-12
1.43405
0.889268
1.29113e-05
-8.95203e-24
-0.000126491
-3.3721e-25
-3.99825e-05
0.55728
3.9629e-06
-4.95472e-05
2.80435e-07
6.64977e-10
-4.92571e-22
3.13004e-09
1.54307
0.0323269
-3.24582e-09
2.82656e-21
5.37232e-05
3.06651e-27
0.00292556
0.718161
-4.72115e-05
-1.36361e-07
1.9825e-05
-1.37525e-19
2.40804e-10
1.33187
0.00814448
-0.000589629
8.97628e-24
1.31739
-7.71504e-24
-0.000135381
0.145979
1.57149e-06
2.51709e-17
-1.34533e-15
-2.37176e-18
1.26783
0.934202
0.846728
9.9768e-09
7.14989e-15
1.12753
1.00097
1.00337
-9.28166e-09
4.85283e-19
-6.63436e-25
0.570653
9.4204e-12
1.38365
0.000624737
8.83365e-10
0.00308877
3.35162e-11
-3.53526e-11
0.90752
8.7709e-23
2.4661e-08
-1.94541e-06
1.01699
1.06343
2.78644e-14
2.73654e-17
1.42352
-4.61839e-21
4.14129e-19
8.38657e-09
5.85656e-24
1.09351
0.370564
-4.32235e-15
5.16973e-09
-5.29358e-15
3.99536e-10
0.000657738
0.0165285
-1.4107e-08
-1.23033e-21
5.95999e-08
-0.00205082
4.18882e-16
8.6648e-07
2.98994e-07
0.000914556
1.48514
1.10617e-05
0.406647
-9.29622e-12
1.66737e-18
3.56597e-09
0.00749077
1.46911
-5.07376e-20
1.06283e-06
0.739558
-3.99651e-24
0.97477
-1.73859e-15
-1.10237e-15
2.66328e-06
0.00174688
1.88455
0.999251
6.09908e-14
2.66263e-08
0.99584
1.4909
6.24777e-06
0.00430118
0.437584
1.50815
0.999994
-7.40849e-22
-5.32154e-05
3.01599e-07
-1.19307e-15
-3.01329e-06
7.82768e-09
-1.67387e-13
0.997477
1.04221
-0.0052309
1.23572e-23
0.0119816
1.51013e-07
5.0747e-08
3.85382e-10
0.00660217
2.15627e-08
-4.05404e-09
1.77105e-15
1.58681
-6.13767e-27
-0.000868665
-3.79184e-20
1.46419
1.48632
1.47625
1.46572
2.41964e-19
5.66973e-05
1.24559e-22
-4.34417e-22
0.700818
0.000203591
-5.60022e-10
1.45177e-06
0.00957348
0.0172411
-1.50144e-05
0.000448594
0.603881
2.17203e-11
1.31707
2.89333e-17
-0.000538956
1.42871
1.29362
5.63263e-10
2.95979e-21
1.31844e-06
-4.23982e-20
1.25907
-5.6538e-25
0.968178
-0.000235694
1.0187e-09
-1.26353e-20
3.24242e-07
0.000500683
-5.19985e-08
5.72864e-09
0.596718
-8.06599e-21
0.129448
0.40924
0.00849894
1.52528
1.3272
-0.000449527
7.50816e-20
3.06448e-10
0.964042
-3.89708e-21
1.60799
0.0110691
1.98025e-10
-1.18508e-19
0.00117373
1.50452
0.000163404
1.39174
0.00712107
0.0058376
0.0202356
-8.94209e-19
7.14703e-20
0.0325233
0.188357
3.94248e-09
0.895184
-6.84718e-14
-3.69929e-21
-1.60338e-25
-2.93131e-14
0.0710744
0.854152
-4.16512e-11
2.28176e-06
1.3811e-22
7.11782e-07
1.07412e-06
-1.48526e-21
0.0015564
6.84104e-08
0.00978344
0.0177962
0.0255522
1.07544
1.69202
1.50769
0.995375
3.24565e-07
2.37396e-15
1.24793
1.80145
-6.97479e-26
2.49583e-06
-3.24821e-06
1.49468
-0.000814158
5.3468e-09
-3.04106e-24
6.67334e-06
1.13504
0.315212
-0.0449928
0.181789
1.85029
0.000456175
0.0281046
0.185873
3.77717e-08
1.40391e-23
0.0081658
1.53212
8.06753e-08
1.47117
0.00238155
1.41126e-15
0.0345506
1.43002e-09
-1.79497e-10
5.63276e-09
1.00344
-1.84361e-07
1.06914
7.66173e-16
0.00177918
-6.32984e-08
-1.05952e-16
0.00937905
-4.38129e-05
0.00251494
1.47898
0.00438944
1.94965
3.68832e-07
5.27124e-26
2.07437e-11
1.49767
-0.00106622
0.571731
2.0522e-05
-1.79363e-17
8.09745e-26
-7.83318e-13
1.95953e-08
6.51733e-06
-8.98909e-10
-9.33636e-19
-0.00155254
-2.25492e-09
0.0212758
1.24992e-12
-6.24464e-07
0.0370878
8.29722e-07
0.00608881
1.94936
-1.24773e-20
-5.23881e-28
-1.63048e-11
8.25204e-05
0.000408074
1.05585e-09
-3.2528e-05
1.64167
0.00170794
1.01082e-05
1.61013
1.49527
1.60881
-4.45421e-17
5.33337e-05
0.000768794
4.05718e-10
-2.51125e-18
2.22225e-06
-6.99833e-05
8.24433e-08
0.222007
2.52249e-07
1.51117
-3.80034e-11
1.76564
1.48098
0.0429658
1.47266
7.0018e-27
-0.124078
0.00313311
-2.4998e-24
1.57259e-09
-6.54116e-12
3.34135e-05
1.40677e-08
-3.33068e-12
-1.64707e-06
0.0521473
3.10833e-05
1.72906e-28
1.05448
9.01136e-05
0.958308
1.49868
1.46732
0.000134828
1.56792
7.54075e-09
9.00439e-13
9.80276e-19
2.82704e-28
-8.82805e-10
1.39529e-08
1.25887e-06
-1.00644e-05
3.32073e-28
0.978255
-2.29831e-29
-0.000107994
-7.00513e-25
0.41465
0.798867
0.00411849
-1.94463e-18
-1.95636e-23
5.76368e-09
0.86858
1.03739
0.0073602
3.55923e-06
0.00207816
-1.58088e-20
-1.62839e-05
-8.48645e-06
-0.0015988
1.6666
-1.80139e-15
0.739117
1.6743e-07
1.12216e-09
0.000311008
-1.91059e-22
1.03491
1.23829
1.33705
0.00927931
0.726754
0.0578811
-1.95857e-13
0.206312
0.742834
0.850985
-5.05889e-18
0.00189963
1.05313e-17
0.000136576
-1.7753e-06
-1.26809e-13
1.00408
1.00136e-09
-2.887e-06
7.61896e-06
1.02755
-1.99846e-06
1.45336e-10
0.000221561
0.232864
1.78948e-21
0.995128
-0.000730387
1.00199e-15
-1.08115e-23
-2.68025e-20
0.659201
0.966375
2.43748e-07
0.00632906
0.000547646
3.01167e-05
-3.60527e-13
1.13792e-26
1.55997
0.799253
0.590744
0.00110284
0.000771348
1.63968
3.9939e-08
-0.000690349
-4.99877e-09
-1.09254e-15
6.48018e-07
1.37258
0.000993416
4.76628e-09
1.64025
0.000491948
-0.000496123
-7.98512e-22
-0.000969871
0.000383082
8.31769e-09
3.07522e-14
0.0152978
0.00168433
-1.23807e-05
5.2798e-11
7.60847e-22
-0.00269347
1.52586
2.44193e-20
-2.82605e-06
3.68805e-25
6.67812e-18
5.01978e-09
1.39033
3.18933e-07
1.54599
1.58934
1.26961e-24
4.02299e-06
0.425609
-4.69922e-18
0.862497
-5.60172e-10
-0.00178941
1.44299
0.00565538
0.0376661
-0.00256458
1.50339
1.45244
5.42388e-16
6.83213e-06
6.57525e-21
1.8562e-05
0.241716
0.00233498
6.15517e-07
2.35982e-11
1.09944
1.40729
0.614461
0.000663382
1.39988
1.55407
1.02397
0.00196275
-1.0133e-16
0.00899109
2.23411e-09
5.63498e-18
0.00853917
3.16339e-07
-4.07885e-07
0.00298124
0.293942
0.0339153
0.0147661
3.73663e-09
-1.99617e-18
0.0773028
1.42059
2.25742e-17
-1.2099e-26
4.22811e-08
0.00421342
9.66421e-07
-7.21923e-11
0.0148732
0.00345024
4.45488e-05
-1.02791e-09
1.08635
1.13279e-07
-4.28543e-05
0.992162
1.11563e-07
1.608
6.91044e-05
1.09072
5.29476e-06
1.53013e-09
2.81541e-09
6.4993e-09
-9.29051e-23
1.44675
-4.65153e-10
-2.5908e-19
3.6516e-08
2.57603e-05
1.22479
-3.51077e-18
0.982327
1.42852
0.00115879
1.61458e-10
3.57e-21
-3.07872e-09
1.34015e-25
3.06931e-05
-1.46401e-06
0.0285208
-0.00176569
5.26965e-10
1.79046e-07
8.91977e-11
1.59416
7.82214e-20
1.2374e-12
-2.34969e-05
9.89814e-10
-1.72169e-12
0.94679
9.07658e-23
0.42062
3.79112e-06
2.32352e-28
-0.00144078
-9.29757e-06
0.206835
4.61142e-07
2.20363e-16
0.00238489
-1.31768e-06
6.5285e-24
0.137699
-7.53726e-21
-2.1907e-10
1.43845e-21
1.37541
3.8927e-14
0.0319847
1.31798e-06
1.60133
0.0033967
1.09562
0.0112061
-2.12236e-19
7.07733e-08
5.254e-08
7.74761e-06
1.80553e-06
1.10779
-4.0254e-12
5.02758e-22
6.55949e-10
1.30407
0.0345267
1.76964e-19
8.23402e-09
0.966216
4.60256e-05
-1.41325e-07
4.87072e-05
-0.00217723
-3.83988e-05
-9.24552e-15
1.94072
4.92568e-23
2.80982e-08
0.00122013
1.53531
1.52837
1.32221
-4.17901e-25
1.4517
4.04257e-19
-2.22354e-12
0.997815
-3.96776e-07
9.84988e-20
4.55415e-09
0.0208701
0.000987198
1.12221e-06
1.44796
-1.45256e-11
0.0135797
9.46515e-05
-2.8643e-07
-1.24052e-17
8.78037e-24
4.33231e-18
0.00437802
0.433374
0.845786
0.000467319
-0.000705092
-2.04993e-13
2.21779e-21
0.00046388
2.42995e-10
1.40908
1.48278e-22
1.5308e-09
0.000613714
1.2777
-0.00403316
2.48215e-17
-0.00285882
1.04444
0.000455806
6.52746e-19
1.2114e-11
1.37288e-07
1.69216
-4.24256e-22
1.52347
2.49206e-05
9.96728e-22
-5.29315e-14
-4.25324e-18
0.17408
8.92512e-11
1.02763e-09
1.61979e-06
0.0264171
0.0124232
3.29895e-08
0.0298715
1.45582e-05
-0.000138847
0.307977
4.9583e-11
1.41064
1.4217
0.00165838
0.985417
1.47943
0.00793543
0.304933
-1.8968e-10
1.96715e-07
0.00303534
3.22143e-15
4.82025e-10
1.28459e-05
0.00777254
-9.8767e-17
7.5605e-08
4.70775e-06
-4.39144e-07
0.877627
0.168828
1.84911e-21
0.121564
0.00428752
5.67481e-19
1.33765
1.15202e-24
0.67212
8.4601e-12
1.65734
-7.51497e-23
0.0028128
0.000454856
4.11712e-08
2.58585e-08
1.05803e-20
-0.000889763
0.820475
2.95254e-05
1.52948
-2.47685e-22
1.88071e-14
1.21751
-3.90253e-19
1.48704
0.321086
4.61412e-18
3.11353e-25
1.91709
1.51972
0.000934354
-5.42168e-06
-1.01047e-18
-4.53747e-23
7.15358e-16
-2.75113e-27
4.95957e-08
0.230339
0.111445
1.14053e-10
5.90396e-12
0.0421762
-1.20234e-17
7.88367e-05
4.00737e-22
6.42658e-11
0.00136608
1.20227e-21
0.494807
-0.000152651
0.962921
3.51952e-08
-1.42869e-15
-3.378e-17
-1.73157e-09
-6.16638e-21
-1.90864e-10
0.109217
9.83501e-09
1.52217e-06
4.74072e-08
0.029357
1.45143e-10
-1.71516e-08
2.90179e-06
-5.07708e-07
6.66691e-09
1.52763
4.03385e-28
1.46211e-06
0.756998
0.217013
0.0679709
-1.17444e-19
1.02473
-8.40911e-05
1.07155e-17
0.239204
9.38527e-21
0.00590992
1.00433
5.00914e-22
4.57541e-23
1.44671
-0.00017563
1.23151e-06
1.16768e-21
-0.000389837
1.12648
2.29978e-08
2.85898e-12
-1.06495e-14
3.81157e-09
0.000120571
0.000571672
1.1765e-28
6.24956e-07
9.7777e-09
0.973922
0.999573
2.12762e-27
-3.47831e-07
5.42856e-06
7.06611e-19
1.37527e-08
-4.07954e-24
1.28361
-4.51374e-28
3.28075e-27
-3.83844e-27
-3.13622e-07
0.0467811
1.34898
-8.92894e-08
-2.53963e-27
6.21295e-23
-9.62571e-25
8.36775e-05
2.70221e-18
0.408535
0.0130351
1.00027
3.06511e-16
-8.42966e-17
1.74206e-11
0.00195603
1.42163
0.000663037
0.00636366
1.15305
-2.88553e-22
0.997411
-1.34454e-06
-1.50221e-21
9.07455e-15
8.77814e-07
2.20202
0.000727041
4.99618e-15
0.0124934
0.000621452
0.000184061
0.0392533
5.22186e-07
2.32349e-19
-0.00294088
3.20481e-19
1.29229
5.39947e-19
2.17131e-28
7.82164e-18
1.92069e-07
1.0034
-4.15459e-18
0.8448
-1.29834e-24
0.000103516
2.61269e-05
0.000231743
3.66966e-12
0.151365
1.07186
-1.35208e-15
1.95294e-05
0.0701151
-1.74639e-12
5.38248e-05
1.6691e-16
1.39867
0.148846
7.65732e-08
-0.0924145
6.59481e-06
0.0246441
2.91589e-15
0.00619722
7.82311e-23
-3.1848e-27
1.0144
0.00802931
2.59058
0.00685319
1.05605
2.76131e-11
0.0168481
0.619511
1.81332e-19
8.12276e-15
-0.029655
-9.03953e-13
1.48695e-18
1.55487
1.0503
1.53645
0.00172672
1.60973
0.0309114
4.74405e-08
-0.000920392
0.205152
0.00201968
-0.000334493
0.000253815
9.43863e-09
-8.987e-10
-3.60847e-06
0.0640792
0.165715
0.715479
2.66087e-17
1.48414e-17
2.08207e-09
0.689276
1.08184
0.000117208
0.952647
3.0148e-14
2.07184e-08
1.01999
-2.42515e-05
1.44507
1.05967
0.00254606
0.975245
1.40143e-17
-4.5651e-07
-7.14996e-15
0.977287
0.0864687
0.759893
2.68534e-21
0.990743
0.000674118
-9.27121e-27
-1.63272e-22
2.35502e-12
5.01063e-14
7.91644e-14
-6.12567e-05
-0.0012228
9.09952e-05
7.66976e-08
-4.58551e-19
0.00337784
0.254131
1.36954
0.000429935
0.159935
-5.58587e-22
1.69396e-18
0.594981
-0.00137219
1.0311
0.000605136
-0.00224395
3.37943e-17
1.13855
2.16475e-09
1.18374e-08
0.00929502
3.28583e-12
0.181899
0.415614
-1.94299e-17
-3.80824e-17
1.01921
-6.79146e-11
1.50141e-06
1.49499
4.90457e-06
6.62688e-08
0.54481
0.000810219
-0.00268752
0.00234973
-9.19561e-10
5.05323e-23
1.02016
-3.62737e-13
0.00148119
0.661956
1.62036e-08
6.06641e-06
1.50241
-5.34551e-16
1.31025
0.00529737
5.81195e-08
6.79699e-15
-5.45058e-11
2.27662e-11
0.304893
-1.96506e-16
2.13166
0.0403859
0.00224587
4.39384e-25
0.982911
-1.92231e-10
-8.20358e-05
-1.98362e-06
1.71664
0.00143797
-1.71507e-26
1.31589e-10
2.03227e-07
1.52792
4.16156e-19
1.71979
9.71952e-07
2.11115e-23
0.000749771
-7.25507e-26
-1.97588e-08
0.102186
0.353318
0.118028
1.04623
1.96323e-20
-5.23326e-10
3.7308e-07
8.90754e-10
1.81729e-09
1.51276
0.708806
0.602042
1.5045e-19
1.37024
0.892942
-2.33902e-21
-1.957e-25
1.10037
-1.89552e-05
1.99582e-28
-0.0112559
1.75279e-10
0.809122
0.00256478
-2.90714e-21
0.997306
0.000348919
1.59557
-1.99741e-22
0.13025
0.0606619
-1.62e-15
-2.72056e-14
1.12559e-05
1.44633e-07
3.80472e-16
0.477006
-2.96933e-19
1.38186
0.628538
6.90763e-11
0.00268362
7.85239e-07
0.00772089
-0.00346027
-0.000507942
-1.31568e-05
0.092773
0.301061
1.75581e-09
-1.68355e-11
5.0662e-12
0.795996
-4.27706e-21
0.000621842
2.40335e-19
-0.000259526
4.44748e-18
0.0186508
0.133846
1.25108
0.00588988
2.60614e-08
0.071332
0.881336
-1.88589e-13
1.57882e-12
-5.64898e-06
-1.24772e-12
-1.76346e-06
7.36013e-09
4.17711e-08
2.50929e-24
4.85171e-20
1.68809e-10
1.26498e-10
2.19959e-24
5.51731e-21
0.000399412
-1.27338e-09
4.99204e-06
2.48167e-21
1.10657
0.0150932
1.46154
0.444272
0.802392
1.37947
1.47957
-8.27667e-22
9.81877e-16
7.08032e-10
1.41881e-06
0.0548653
0.000342056
-7.80968e-17
0.731403
2.83299e-18
-2.44405e-16
2.32331e-25
2.46914e-08
1.0458
2.0742
2.50294e-05
0.11938
1.35567e-24
2.04258e-09
1.18891
1.25431
1.18565e-08
0.000232488
0.984029
4.52354e-07
1.76378
1.47444
0.0278418
0.00198878
-1.72199e-07
0.129721
0.930697
1.66768
0.00260768
-0.00053783
4.63349e-09
-3.08183e-19
0.479561
0.033363
3.33027e-18
1.60635
1.5882
3.97027e-05
1.01494
4.50991e-18
-5.96674e-25
1.34374
-9.62661e-05
0.0360929
0.000349103
0.0221859
1.50938
4.6681e-09
0.954958
1.57231e-13
0.00114683
8.36184e-06
-7.09882e-22
1.62813
2.70351e-07
1.19682
0.100853
-0.00397687
7.42722e-08
1.02352e-11
1.5514
1.49848e-06
0.000335363
0.000354786
-2.12502e-25
1.27804e-15
0.51087
9.42459e-17
-7.00406e-07
1.20877
0.619683
8.61669e-22
1.62448e-19
-0.000119754
-4.38102e-05
1.7962e-10
-9.5404e-06
1.47031
5.81478e-09
0.000240124
7.38289e-11
-2.19897e-07
0.00430405
0.322479
3.36268e-18
0.000810296
1.44093
1.42211
1.87303e-12
2.63174e-14
0.232608
-4.78107e-05
-1.24929e-08
2.30578e-18
3.67075e-23
1.43556e-09
6.92585e-09
1.40018
-3.05795e-19
-3.04797e-25
6.16037e-16
0.00593253
5.77157e-05
1.3514e-06
6.36367e-09
3.64488e-22
-4.22355e-18
1.53244e-06
7.41657e-09
1.56237
0.000147206
1.50395
3.91277e-08
2.33034e-05
1.27815e-15
2.75071e-08
-4.96024e-21
0.0110625
-3.06086e-13
0.0703005
0.00477868
-0.00210638
-2.9106e-17
-3.39673e-18
0.962054
1.1529e-11
1.29522e-06
0.937891
2.75821e-19
7.70619e-05
1.68098e-05
1.07278e-09
1.46549
-4.20703e-07
2.47118e-15
0.624562
1.71184e-16
-4.47087e-14
5.83362e-07
2.24635e-14
2.49047e-06
-1.89487e-19
1.19405e-05
-2.82202e-14
1.41773
2.64939e-10
6.02262e-09
-4.5861e-20
0.334831
1.55743e-17
0.362987
0.000110407
-1.44386e-10
-1.0321e-15
4.74038e-07
-1.40012e-13
0.0906376
0.85682
0.0167017
0.689021
0.0389088
1.50607
-1.00223e-15
1.30688
-1.23667e-07
1.94938
3.3985e-06
-6.57325e-18
3.34857e-17
0.0455126
-8.0253e-25
-3.04498e-20
0.00935099
-2.96556e-14
0.000490501
0.0183243
1.55317
1.63127
3.09273e-21
-2.02005e-13
4.3416e-10
0.977883
2.07536e-18
-4.51282e-18
0.0045939
0.0625726
1.1039e-06
2.55455e-09
1.14944
3.04756e-20
-1.19958e-21
-2.98465e-11
0.00280906
8.18559e-23
0.961469
0.434373
7.06694e-09
3.83806e-11
1.54767
0.357764
5.89591e-06
4.12951e-08
-1.97197e-13
2.81154e-20
1.81061e-08
-1.24019e-09
-4.99682e-16
1.24853
1.11633e-14
0.712414
0.0378921
-6.52565e-11
0.000171106
1.64043
-1.21613e-25
5.497e-10
0.45397
-1.26099e-14
1.40103
-1.17046e-05
-8.85514e-08
-3.33956e-12
1.92121e-06
-1.55356e-26
0.231712
1.52207
-7.43314e-17
2.68398e-07
1.48313
1.53951
0.936958
0.0189882
-0.183533
2.58177e-08
2.09666e-10
-3.81728e-10
0.571291
8.383e-21
1.054e-07
0.000229914
4.94775e-09
4.17294e-08
0.615144
1.2749
-1.5157e-09
-1.57459e-20
-6.60573e-05
-1.06872e-18
-6.04842e-25
-2.86847e-16
7.25499e-10
1.06153e-10
-3.03891e-27
-6.09172e-26
1.40686e-13
1.00502e-09
-3.38417e-14
1.72e-10
1.4862
0.465432
7.36211e-27
0.0022337
1.75503
-5.4698e-30
-0.000301169
8.34338e-11
-0.000104684
0.627546
-6.22901e-05
1.39021
2.73719
-2.1828e-07
2.06455e-05
-4.6982e-12
0.0740719
-1.74551e-12
1.16636e-07
3.05301e-10
1.07245e-16
0.188438
6.7528e-09
8.77921e-08
0.000961444
0.317773
1.05797
-0.00212577
1.0411
1.09214e-05
0.00281421
1.57389e-11
1.92428e-06
-2.31787e-05
-1.1138e-25
1.92748e-08
-1.92175e-22
3.89027e-12
0.00692528
1.56376e-05
0.965485
-4.73125e-22
2.27369e-15
6.65999e-16
1.29863e-22
9.3552e-16
3.89795e-16
1.70112
0.0112775
-2.30367e-06
0.136967
3.50767e-06
1.70784e-16
-2.30694e-06
6.04513e-10
0.0027811
1.03351
1.63338
1.41476e-08
0.000712573
0.00364333
1.04142
0.0056673
1.5204
0.000224043
-5.89397e-05
1.41478
1.27521
3.25775e-24
0.00200103
0.912082
1.29561e-19
-6.25384e-12
0.196648
-2.01472e-06
4.1827e-10
1.81788e-19
0.000259644
7.34037e-20
1.34079e-17
-3.70128e-24
0.0804475
0.000905208
2.4674e-17
0.60004
4.48905e-06
1.38648
-0.0362013
0.000219774
1.51966
0.0687685
5.07652e-07
1.15261
2.57694e-20
1.00308e-08
6.28027e-09
5.80935e-09
0.0184278
-5.76806e-22
0.156327
-7.29276e-14
-8.95304e-05
1.02986
6.95373e-10
1.01866e-07
-4.4237e-17
-8.42427e-24
0.0163422
0.00589646
1.66157e-21
-2.38031e-12
3.37283e-09
0.869075
1.50907
1.22126e-26
0.165017
1.55596
1.9683e-12
2.71647e-10
0.126793
1.41012e-09
-6.68922e-09
-8.54989e-20
-3.6669e-25
-6.13347e-21
-1.17107e-20
6.19981e-19
-0.000459798
-8.11922e-17
8.29414e-16
1.45271
-6.9977e-23
-1.76867e-21
0.955681
-6.48114e-08
1.6189e-25
0.392927
0.648506
-2.25344e-22
3.30518e-19
0.000190272
6.21957e-05
1.78423
-3.24577e-09
-1.9597e-20
-7.54371e-05
-0.0676024
0.343701
1.02304e-10
0.600606
1.27727e-16
3.05984e-20
-2.54647e-21
-6.41333e-23
-5.36775e-14
9.076e-09
-5.11436e-07
-4.27916e-24
3.70398e-10
1.36476
-1.17407e-23
0.195419
2.76724e-16
-2.52609e-20
3.73037e-09
2.20317e-20
2.45765e-06
2.58718e-13
1.30354
2.08686e-19
1.6353e-15
1.83009e-19
-3.29824e-24
-2.67022e-27
-4.1367e-17
1.68107
7.38642e-22
4.8123e-11
6.17835e-09
5.25031e-22
-8.13232e-14
0.832963
-4.56503e-25
-5.62013e-17
1.62131
1.47323
0.000178158
4.04084e-05
5.15318e-11
-2.77679e-07
-5.7496e-12
4.59963e-24
0.0317827
0.305902
2.40483e-07
4.6804e-17
-8.53257e-05
0.0194554
1.37713
1.01388
0.26405
1.75357e-22
0.00287098
-4.77137e-19
1.64432e-07
0.559983
-8.77166e-11
1.51528
3.06303e-22
-3.10286e-13
2.46038e-12
-5.01017e-28
0.0159417
-1.70591e-25
1.35292
-5.36061e-05
1.76162
0.000155413
-1.64529e-21
1.97119
1.55621
0.911978
1.3478e-24
0.655538
0.0734254
1.56919
3.73302e-05
4.62644e-05
1.57389
1.68106
0.0299755
1.17502
0.290764
-4.76002e-23
3.36048e-07
1.02004
0.784162
1.72196e-07
0.0537517
-1.03828e-16
4.20787e-16
-6.26862e-26
0.240179
-1.53398e-26
2.18476e-05
1.45281
-7.89821e-16
-2.31759e-16
-3.0257e-05
-8.01492e-06
-3.56892e-06
0.0507717
0.856797
8.96899e-21
-0.000251458
-0.0005965
-2.12434e-12
4.45004e-14
1.1815e-06
0.00631275
1.16455
-3.5544e-07
2.01884e-20
0.369833
0.00683002
0.0773239
0.106418
0.0533783
1.13794
4.04592e-17
0.000133079
0.788705
8.51903e-09
1.69706e-07
0.00930922
0.247056
-2.62059e-24
-6.6957e-15
4.68987e-15
0.166167
5.47988e-06
9.12941e-21
1.49191
0.000253276
6.28135e-08
1.02488
-3.10216e-06
0.0285121
0.902022
2.48581e-15
-8.61361e-24
0.229642
-4.23019e-20
1.48807
4.84865e-20
4.29818e-08
-2.23692e-28
0.0249527
-2.31403e-09
-1.29288e-28
8.70548e-06
0.500552
3.3377e-21
2.65754e-11
0.00423293
0.02704
0.900869
0.0863301
-1.28399e-18
0.861807
2.08894e-05
-2.74579e-17
1.55205
1.28219e-10
0.271292
-6.67991e-27
-7.37346e-12
1.01432
1.86132e-09
1.69514e-08
-3.43548e-05
2.55775e-09
4.92887e-24
4.59762e-19
-0.000996799
0.979173
0.455408
0.000874168
-1.42056e-22
1.18113e-05
1.39661
5.03701e-19
0.000271803
-3.60475e-26
0.687776
9.69536e-17
0.00988233
0.000196495
0.5296
1.27126
1.06011
5.46884e-09
3.34214e-15
1.3104e-05
0.811466
0.941605
-5.52681e-24
-1.05001e-05
0.078963
0.00279376
-4.88259e-27
-6.60263e-15
-1.27604e-05
-0.000123886
0.231597
5.5922e-06
1.15305e-20
-2.27213e-14
1.56846
-4.22094e-11
1.13244
0.764189
4.19263e-09
5.56359e-06
1.312e-06
1.48924
3.74331e-08
-4.05753e-08
8.21932e-13
4.09166e-22
0.00383581
2.85748e-11
5.89961e-08
1.89597e-12
9.50099e-15
1.27172
-2.44522e-27
0.341752
-2.67277e-18
2.72138e-09
9.42216e-09