/*--------------------------------*- C++ -*----------------------------------*\
| =========                 |                                                 |
| \\      /  F ield         | OpenFOAM: The Open Source CFD Toolbox           |
|  \\    /   O peration     | Version:  4.1                                   |
|   \\  /    A nd           | Web:      www.OpenFOAM.org                      |
|    \\/     M anipulation  |                                                 |
\*---------------------------------------------------------------------------*/
FoamFile
{
    version     2.0;
    format      ascii;
    class       surfaceScalarField;
    location    "7";
    object      phi;
}
// * * * * * * * * * * * * * * * * * * * * * * * * * * * * * * * * * * * * * //

dimensions      [0 3 -1 0 0 0 0];

internalField   nonuniform List<scalar> 
48947
(
-32.872
49.656
-37.9535
20.2457
-180.179
112.6
-0.857204
23.8096
64.3727
-227.605
50.0738
116.79
-12.3026
151.221
-247.332
123.095
35.5083
-36.2612
2.46118
-149.341
44.8187
60.7612
-2.67289
-6.72986
8.05749
2.63916
-94.2846
109.671
-22.2601
1.69535
123.088
-8.89541
-106.06
0.274978
31.7148
323.843
-369.958
4.60054
71.7814
7.32255
-0.798375
-102.482
-61.277
0.973203
-0.470225
57.6805
75.3365
-133.216
22.5255
32.3612
128.009
-140.222
64.4187
-22.4596
-256.103
-62.8228
197.144
90.7436
-18.5733
10.2146
-62.9096
83.5353
205.276
-216.212
-174.763
155.971
320.409
-48.2171
-249.091
-56.9618
-215.362
116.919
158.517
150.568
-82.8813
-73.7374
2.47798
30.5762
-46.2611
-16.678
41.117
83.7909
-43.771
-171.764
153.51
24.6668
-27.4381
3.01903
27.0745
-21.9096
-10.1472
70.6744
30.6226
-76.9908
-22.0248
-65.9142
49.0992
-21.9078
47.6238
95.5577
-65.4016
-91.9812
30.2522
150.397
35.5399
-18.8929
-152.027
-57.5678
-20.004
75.8787
7.63451
95.0175
213.446
-161.377
-141.679
78.7941
109.17
-86.2285
-93.0914
-2.33656
-185.424
106.122
76.326
-73.135
68.7385
-23.4128
-0.0336327
-6.5101
19.2414
23.3275
-34.7678
-7.45143
27.5834
-40.7931
23.6465
5.08907
-24.0917
9.60865
31
50.6555
-146.508
34.2377
228.909
181.584
-284.523
-134.455
16.3473
14.8241
-23.292
0.884399
71.977
134.156
-68.6338
-23.0748
3.21382
22.598
377.281
7.96701
-45.7912
-81.2535
61.2534
0.741348
27.482
189.422
-189.385
193.643
-203.987
-22.1471
-124.235
18.8232
-45.3794
-72.4979
236.485
-132.745
42.4541
-200.669
-73.0174
240.538
121.162
-69.09
-94.434
76.1617
-55.9133
21.7777
72.5501
-24.1887
-81.8924
-3.93967
19.992
63.6111
-435.644
-150.498
296.61
314.808
83.1895
-70.2985
-102.273
84.9861
162.207
56.4043
-96.0389
-151.14
38.6999
-111.707
-20.3432
112.293
-118.648
-98.7376
109.236
237.933
-222.467
142.919
226.628
-266.956
56.8281
3.54766
269.524
-75.4294
-218.236
-9.68791
170.545
-91.1038
-30.9819
-67.9571
125.346
-46.1975
-20.9921
50.4614
-117.473
51.3606
27.1752
13.0674
-79.338
71.1777
6.32707
13.4056
83.4225
-58.5108
-31.8696
57.6022
16.7212
-3.76808
-50.0543
87.5203
1.47348
-47.4127
-40.6752
-52.5918
28.4243
15.9518
5.63333
-146.528
-48.3604
150.559
42.0195
-118.025
-213.411
200.634
161.694
-33.0283
-23.2562
-6.62549
53.6784
118.395
-32.1351
154.957
195.839
-135.881
-50.7208
-1.43643
-1.73656
-81.6318
-6.82436
88.1006
90.8001
5.45586
-34.7695
-51.4981
29.0154
107.52
-57.1896
54.6894
15.9763
-63.2248
-10.8669
45.894
-11.8151
150.387
-1.84992
-26.1153
27.2572
-9.08556
-23.7078
31.8311
-124.835
53.5386
-33.9655
132.786
143.172
-29.257
-189.705
56.2893
11.9409
9.50527
-14.8967
-3.42678
-16.8971
33.2343
-63.396
34.2169
123.475
-82.8279
366.886
-321.25
18.0868
-33.9609
-300.564
-12.1506
101.342
212.689
37.8636
-64.1158
189.063
3.7199
-10.3172
6.03155
0.38522
-40.062
56.3003
-54.9163
46.1258
54.1484
-46.4613
-20.6539
12.9162
5.15008
58.2844
-168.546
113.506
-153.101
-14.0843
24.2944
20.6816
-187.907
239.476
-136.761
149.253
-118.571
-46.5103
-149.007
-122.956
65.3105
-118.282
15.6228
35.2215
-40.1545
-34.4352
1.04682
-38.7942
86.6915
46.2918
-97.3712
44.6369
-112.044
-143.21
-387.655
108.045
260.304
-162.449
108.256
54.7484
-21.9081
74.3542
-48.264
24.7809
-4.33642
165.073
-118.676
-178.898
201.193
-246.251
4.58559
13.6414
15.795
84.2082
-82.4308
-11.7211
68.3059
44.856
-27.4881
-87.3628
-49.2464
35.2149
68.0272
-61.2922
-0.931392
-93.7276
223.661
-7.56407
186.172
-65.2024
-118.677
89.2292
-35.8353
12.7001
-108.746
322.542
-279.008
6.78024
-14.7261
36.6141
6.86514
-17.2879
28.1483
-14.4719
-69.7152
-3.16369
96.8611
-224.714
-510.197
150.32
616.583
-25.2106
-157.741
-76.5691
275.42
19.8882
-19.8021
-0.780146
-1.20269
-1.41805
7.00507
-50.2183
18.8729
37.5783
-13.5422
-17.0835
16.0804
-73.0353
61.2775
-171.483
164.218
-21.5282
-41.4346
-88.9268
1.75253
123.698
185.908
65.5301
-198.337
-51.2978
-21.6731
115.213
-117.31
-31.5926
65.5087
252.391
-261.178
134.266
-34.2842
-96.7276
21.3354
51.8906
-80.5837
206.065
-2.74806
-352.598
156.012
120.724
-417.878
199.821
119.025
-375.389
117.316
231.704
27.945
-271.955
278.195
-237.421
127.763
-4.38456
76.9152
-208.581
-115.432
-101.775
91.3673
103.949
-20.489
12.8352
31.9585
-252.057
-178.593
134.403
153.458
-204.512
-87.9446
-15.5103
45.0447
-76.2969
56.0343
295.209
-382.708
94.0421
-45.8221
-130.346
158.575
16.4735
208.168
-174.331
-22.0617
-46.8353
253.969
36.8294
-256.706
126.727
81.1179
-103.492
-102.157
57.8441
-205.99
-16.5909
175.603
-212.669
-30.5698
226.92
77.3054
-123.441
-200.024
230.771
18.1582
32.6888
60.5875
-117.653
-181.971
211.451
-157.956
122.636
-27.094
-26.1281
51.6522
14.1616
-77.7217
42.0254
14.2023
-148.114
173.848
6.04872
-12.9231
39.5212
-8.65941
111.229
-141.761
7.46661
-14.8733
1.68669
2.0037
43.1723
-228.275
40.497
150.28
17.075
4.05701
34.3986
-59.2204
235.159
268.817
-246.567
106.471
-83.0537
-91.9554
74.0321
38.7517
616.263
-289.089
-299.985
25.3499
-112.711
-80.4708
5.6232
221.109
0.424942
64.221
147.378
7.28111
-18.3692
105.882
20.1361
8.33438
2.20963
-1.85888
145.616
-210.167
33.3976
-6.83694
-13.305
21.54
21.4152
-11.4762
-5.86506
-51.168
-40.0918
284.204
-173.192
40.0164
-58.4529
-2.92245
69.9003
4.61717
95.9622
-164.582
41.6512
-5.88096
41.1557
-78.086
64.2756
-128.953
66.6926
-30.8262
28.5115
2.98229
-247.545
223.689
95.0207
-183.15
277.18
-134.512
42.9272
9.06343
11.7137
-72.3968
47.5921
455.764
-630.137
272.852
-154.549
-68.0272
132.009
-80.917
5.97072
10.0613
-77.5401
-153.85
-235.08
-164.059
103.721
285.373
43.2668
83.9339
-107.636
-13.5835
69.9806
-92.8366
-166.024
183.54
-128.188
45.4557
31.9217
61.4199
-44.042
6.1161
17.3496
14.0708
-78.312
-325.424
54.9839
348.938
-163.082
-101.968
-21.9588
78.0886
-181.706
145.144
-145.178
206.461
-4.43148
133.759
-14.3103
69.2596
-63.0206
140.877
-147.721
-81.365
-25.4327
24.7901
65.5531
-40.75
160.425
37.3029
77.9321
-144.605
27.5412
40.0326
-386.315
-2.87126
167.21
229.363
-17.9633
239.276
146.626
-92.4322
211.651
0.74022
-112.554
0.139813
21.805
-191.673
-164.785
-41.1357
470.163
-107.9
145.511
-101.936
102.314
215.138
-56.0325
-4.58032
-0.0089398
4.48416
-7.61594
-34.5351
46.0201
-372.15
60.0668
130.729
-25.0067
-16.6626
-40.9006
87.0551
78.304
44.1533
46.6149
-190.892
93.0782
3.25278
-2.52349
-97.1515
106.268
66.0529
-28.0156
-365.02
-274.427
663.503
-2.0264
266.951
-246.56
-20.2278
-4.54557
15.9121
-118.241
103.657
-128.616
83.2911
52.6969
-9.68287
94.7772
-5.95825
-92.0534
7.14365
-31.6498
20.8602
-1.13001
0.449904
5.3129
5.6969
-10.5802
-88.2111
49.8066
116.835
21.3114
1.916
4.87248
1.69366
7.77433
-87.723
-12.6727
86.2583
37.2509
15.3436
-55.6045
-198.694
242.215
16.0252
-71.956
33.4345
23.6915
-38.0759
0.084485
200.55
-74.9841
-146.576
55.8094
-1.30535
2.28405
-59.4718
105.627
55.572
-71.5825
96.3924
-98.6119
75.8707
-21.514
52.3448
-2.74223
-40.5303
119.12
-2.44937
-148.356
-56.2121
9.87604
10.9833
42.3093
65.4795
-21.0748
-84.4441
50.5437
-23.3124
43.1475
-23.295
-172.045
227.525
-168.677
97.6755
-286.329
113.039
72.6175
-221.134
190.257
192.04
-151.175
-130.766
-4.54825
-44.4325
175.323
1.69005
-13.1458
20.0267
87.8837
-14.5996
-29.535
31.2807
-65.5209
74.1627
-38.242
104.42
-206.83
102.969
320.943
99.0044
-225.943
-192.091
12.7225
-25.6267
12.545
-0.483057
7.30963
-0.0508199
-4.08302
6.09238
136.044
-251.489
-426.66
128.91
-116.336
-622.176
487.8
660.965
-480.361
-0.475413
-14.8443
16.0867
-3.68194
-10.4599
10.8755
-254.627
103.2
80.9141
67.6073
-66.3276
37.6877
16.632
15.8154
-67.7296
-26.0121
68.2309
-12.9101
-35.4443
43.7852
232.326
-116.352
-87.5746
-22.5788
-229.889
140.231
146.917
-163.635
7.09172
93.4646
67.4866
-1.84767
-0.384496
2.29306
-37.7823
-6.11038
20.2915
33.2278
23.0765
23.6695
-39.6229
143.072
-48.3288
-55.3576
9.87731
-6.12112
30.9726
-29.8896
6.86305
-1.93564
-64.6361
-115.324
27.6881
-2.69527
23.3017
-17.8074
-15.4319
-89.1797
130.366
-30.722
-201.249
175.642
22.991
-79.0848
369.152
99.7774
42.9686
-206.167
49.8733
-142.377
-12.7483
72.0307
95.8597
63.2446
-531.206
210.897
61.8046
4.55707
-64.9163
-1.09204
3.57693
3.62502
-59.4168
51.6897
-78.8673
-107.04
257.427
147.178
45.2609
-826.746
8.76816
-131.218
-10.7424
126.534
-24.7329
209.02
32.2943
21.2681
87.3176
-126.005
30.7184
7.96601
-37.4414
3.34079
-9.35842
9.67467
21.0041
-20.7509
82.1507
-33.3217
64.6984
66.6907
140.026
-49.2536
234.056
-19.7206
29.2582
-17.1658
-5.62007
6.92483
5.17879
18.4213
20.3373
-74.0231
49.5955
-28.7715
24.4163
95.5136
152.897
108.591
-259.446
56.5656
-7.57634
-62.0008
9.0254
-125.341
27.8564
-38.8252
32.1705
15.8557
-6.81241
572.765
22.723
-163.812
3.46405
94.5943
-91.0616
185.772
120.314
-136.609
51.1082
-138.265
-32.9859
130.801
-18.2011
8.49128
9.06686
16.6836
-113.679
225.667
-217.51
-162.829
167.197
-125.942
-59.3506
111.604
66.7595
-28.4118
310.908
19.0992
-261.632
13.2465
-17.6049
2.5058
8.79795
55.5934
-52.7843
17.1627
-58.7928
82.7694
100.357
-7.04928
-29.0927
-63.1165
-93.7671
-107.35
-183.848
83.8682
229.48
-58.8419
13.181
20.3445
-4.36982
-232.554
50.5961
61.5331
127.31
25.0996
-35.8864
56.1882
-43.315
133.004
3.61976
-7.61322
-2.87774
-41.1343
21.1378
24.6549
-39.1296
-5.25581
-6.48901
44.5017
-1.75984
4.14435
-76.9624
63.7031
-84.2157
7.85904
2.89699
72.6707
-38.5531
82.0644
44.0386
-72.7218
-62.5976
-6.06784
-69.9332
-20.867
-3.59702
6.50309
-112.573
54.6564
8.3931
-119.619
-28.1089
229.817
10.856
179.064
24.1321
-206.242
-114.328
161.489
-6.29123
-29.5867
83.3224
-41.5297
17.5446
-54.8172
6.11912
257.476
-177.549
-97.7983
-263.725
-375.966
260.973
320.692
115.201
-98.7601
-98.782
53.1006
-8.91878
36.847
-81.9498
99.6577
191.768
-155.032
-134.864
-222.342
295.912
-23.2406
-115.534
-36.0566
151.768
17.1597
-27.179
26.5182
192.401
-65.0962
-24.3192
-41.7369
-92.3293
65.9367
-0.395917
12.5063
-196.227
-36.6504
72.8268
27.5534
-61.4208
235.113
85.0696
0.624931
-35.784
175.852
-73.7471
-94.4488
48.5789
-74.9176
-104.358
77.9461
-20.7676
197.017
-147.529
121.535
-156.252
-435.994
65.9554
335.814
-159.77
-34.9661
176.527
-83.2412
79.8778
16.2863
-0.960446
-189.632
292.753
-35.0331
-60.3117
12.7414
2.7794
45.5175
-17.2728
51.5031
240.573
-40.1829
-265.679
61.1257
-53.7916
11.1397
85.9367
-83.3663
-78.302
-48.9518
198.046
40.6973
-175.762
-81.2437
101.512
-30.1158
19.5365
-342.428
165.651
126.975
-149.051
97.1181
-8.23698
-146.422
7.70189
5.73666
-51.2499
45.5914
7.35742
-4.09094
-9.2988
129.938
126.423
-49.5056
-205.75
9.68511
-277.147
45.6914
-8.71969
18.6459
-235.234
22.3049
205.863
-173.844
-45.6002
-2.58426
-12.6328
7.79271
-267.865
157.153
14.9499
0.716062
-146.765
-28.6239
176.839
226.741
-336.816
172.922
-63.3875
-86.6041
-151.867
-58.6125
-183.731
216.193
6.98266
-92.5411
-31.5331
38.1462
77.0496
-23.4009
-8.23607
37.2616
-8.22365
-265.159
179.19
31.1015
50.8746
-67.0626
191.619
-52.6549
-85.125
-272.839
175.286
-135.901
109.789
-285.004
151.49
-88.7889
54.7759
142.012
34.8065
93.1727
-120.053
-10.0286
-0.856205
-80.2429
90.4622
25.7231
4.90598
-126.609
90.4976
36.705
2.28002
243.374
-312.738
-153.602
71.658
254.532
-150.397
88.9881
-12.6636
-27.4289
-73.8199
54.804
48.5523
91.3917
-48.5621
-9.05676
141.672
5.31823
-8.0063
223.879
-49.5711
-138.241
19.3224
-10.1633
-9.33761
54.5409
-5.48417
-53.7884
97.3984
-526.573
-2.89483
472.774
-79.1472
83.8784
-16.6377
6.39091
25.3302
-142.333
-36.3911
-24.5766
-198.344
216.762
-6.41231
-94.6416
163.747
-221.488
23.6594
68.5366
-42.3628
77.1018
-12.2553
14.0585
-1.13137
-1.51425
78.0969
15.7479
25.4646
40.1709
43.1694
-41.6966
34.3573
-135.024
26.1952
97.2264
-25.9976
109.664
-175.017
101.082
-45.835
-13.5223
-7.36906
-11.0934
59.3932
-34.7783
79.9398
-74.1179
-68.3757
50.9491
243.661
221.706
-535.778
35.4726
26.2568
29.7538
-46.7154
-188.73
673.07
23.529
211.273
-544.45
262.888
66.3875
-286.772
330.242
-26.8852
99.1284
35.6385
55.4295
250.042
-260.861
-48.0306
138.277
323.48
-136.811
126.316
-63.7524
-209.358
128.995
-386.004
-0.440484
35.4389
-33.5749
-80.2489
75.0865
-27.2314
34.267
-194.964
163.401
50.3821
-182.386
23.5518
27.9197
-131.633
-3.50228
101.446
67.1703
-147.897
-33.9759
130.758
25.8513
-39.8564
-17.8351
41.0379
-219.567
-312.981
65.9056
-19.4864
24.9847
26.5988
-106.296
-24.5835
106.508
108.445
-23.7467
14.6809
-121.654
94.8741
82.7698
-152.759
-21.6383
-91.9501
-3.99926
2.38098
-7.24831
10.1059
-84.3749
-196.001
-123.131
10.906
768.54
13.3206
36.5759
-78.3529
25.2102
-51.4924
72.051
-27.019
9.74129
7.64764
9.09123
-79.8887
57.4581
-194.68
14.5039
-62.69
154.283
-34.3996
34.6063
-2.49753
-207.698
140.213
-127.037
183.475
-54.1111
19.3224
31.3714
262.819
-113.001
2.30646
-170.113
160.289
-163.932
-143.863
182.461
-44.4197
19.6448
-11.2173
-4.60252
18.4115
-135.907
-410.672
-129.883
349.094
-292.73
224.546
213.715
-49.4662
135.428
-30.8892
-32.8595
0.437583
-0.246834
-29.7264
28.7831
51.1021
-417.028
391.749
-12.3622
-3.09241
50.7424
-136.904
-5.4857
7.92297
-1.82086
-28.2739
41.4788
97.8001
-101.188
-24.6738
13.7118
97.5353
-82.3241
535.464
-483.583
153.411
-91.59
179.321
-81.7044
-22.4585
26.2788
-71.8819
54.7602
58.3383
45.0917
-72.3382
29.5014
-66.9939
88.8944
-44.3622
-502.8
145.457
179.946
115.043
-55.4375
-154.862
90.5598
11.6865
-21.0501
22.378
-17.1815
203.869
-458.257
25.0996
172.637
-214.028
7.92684
9.56318
113.793
-245.428
-399.856
-22.5373
74.4073
-83.1032
20.519
30.2051
56.171
-91.7647
102.699
-5.14021
-59.7628
-40.7597
-16.4802
-9.78308
158.529
-159.49
15.635
-68.7229
6.09188
103.424
-119.769
-0.393421
21.765
-163.048
-2.86461
264.049
11.6355
-5.67544
-5.76289
14.7228
-67.2632
-5.30158
-21.6381
181.859
132.734
-22.3973
103.053
119.881
-42.1801
-216.984
38.2316
29.4735
83.7848
-157.131
294.022
-223.177
-24.381
-3.10145
17.5755
-12.5335
124.53
-26.8093
-42.9975
-72.8571
15.8525
0.446602
-15.6855
-19.3245
-135.467
36.1822
129.154
-139.464
84.3381
-110.842
158.079
3.22288
-21.1688
41.1606
-0.504653
-11.0716
-29.4953
-99.435
-586.099
288.602
-66.8754
-101.909
50.7004
-20.8409
84.5854
18.8596
-20.8836
15.9667
74.0175
-1.47736
-82.1046
-0.265032
-52.728
-34.5039
17.2929
72.4298
-40.6344
54.0211
-114.999
15.9468
-26.4074
19.3749
-11.5345
125.349
10.6191
95.7212
-240.248
-29.4611
14.3374
10.7875
2.11344
-214.511
81.7836
-334.708
465.488
-2.67246
-24.7974
28.1389
-237.036
17.9375
39.0849
167.915
-44.3214
135.873
-100.057
-1.23315
189.441
31.0331
-254.617
12.6433
-39.0496
33.6712
9.35407
95.4341
118.693
-16.624
-2.5332
-94.0936
12.8933
82.2399
50.1733
-308.152
-36.6421
143.778
-58.8163
-14.2209
-62.9526
12.3352
71.2888
-194.418
384.011
72.9893
34.7669
-16.1267
156.564
-234.918
178.931
-94.2909
-381.336
189.122
314.654
-174.643
-424.782
290.394
70.1604
-130.694
-75.0078
151.848
71.8825
-57.737
-31.3038
226.262
-175.823
-18.6306
123.464
-0.806471
-96.9566
-285.195
-3.72116
91.6788
214.573
-244.525
169.747
-147.74
204.978
-20.9554
84.2943
-0.969102
-65.6052
-19.0585
17.4168
1.67821
2.10506
47.6521
143.269
-74.525
54.804
20.8628
-138.768
68.434
-31.3228
-78.352
349.84
33.3933
56.7687
-75.7889
-4.28547
71.2666
3.05007
60.5523
-139.752
2.73305
-60.4296
54.1564
245.307
-402.485
288.557
280.522
21.5927
-30.8067
27.4486
-10.9981
-43.0503
3.6173
-206.068
26.3896
179.406
17.8433
5.47823
-78.6749
70.785
104.094
-62.8257
-116.114
-71.9478
6.41047
41.1047
103.187
2.87131
0.899063
143.98
-30.2848
-31.761
-59.3492
3.62794
92.341
92.2739
-314.721
177.232
41.647
-25.1839
39.5224
14.2112
16.923
11.3184
10.0864
118.503
-92.8552
27.5275
-156.503
95.0007
-200.909
60.0255
144.633
-30.8376
-55.2484
-78.6347
1.56905
84.6418
-3.14256
-0.721592
68.5711
-81.9077
9.10665
-496.219
-37.2872
-14.4227
-140.137
-66.5246
137.939
71.8764
18.2717
2.78989
45.5161
-83.467
-123.736
164.269
-405.753
209.846
-214.979
424.99
-38.8456
-226.987
199.862
28.7743
-219.479
282.028
14.7613
60.1481
-32.2597
-12.9243
-91.7469
139.449
-140.767
95.5409
-132.975
152.36
83.0691
-91.2637
90.4355
12.3772
7.62455
-155.353
86.7828
47.3544
23.5416
-37.7604
-49.6317
-304.366
-22.0369
244.227
56.6958
-119.591
61.2683
5.02962
95.3238
-181.019
97.566
10.6889
-29.3283
12.2256
-46.6498
8.307
37.8444
-91.5574
188.545
24.7299
-96.577
-103.92
144.835
58.6857
-286.826
-134.221
389.408
-159.489
-63.4593
218.184
-2.21884
-29.1607
40.598
87.3313
-59.3353
-0.992637
-21.9598
-106.503
-9.70758
79.6208
-74.2736
106.574
-106.639
107.563
-468.973
5.42714
-9.97984
-61.8513
69.7673
44.6833
-34.2055
-6.82873
30.223
-55.181
-50.1804
-27.9162
-67.7714
168.161
-136.51
-4.76111
218.693
-70.847
150.775
-436.433
-84.7847
159.11
-115.681
59.4102
88.0796
12.2514
-57.6682
-8.99907
95.5881
-33.1305
-152.488
222.767
-175.361
3.74608
-18.6381
-99.8829
25.5995
70.8156
-82.6141
0.0795834
72.1572
12.8498
-329.486
-28.3967
65.4662
319.794
78.767
47.7947
-62.7615
-90.448
127.158
-66.9627
-35.5092
-11.0192
116.06
38.275
118.208
-258.089
-96.0587
86.2918
38.3646
-7.13994
-94.7513
155.337
1.67562
61.1338
-22.5293
-37.3019
-114.058
-60.965
177.401
17.9639
-20.5934
15.9928
78.9251
-77.1088
-39.613
-1.45168
-54.5046
98.9462
9.30657
-30.9686
-15.506
22.4567
213.226
-17.0758
-278.162
-148.727
3.39282
0.43532
-54.4554
45.7466
-134.433
8.40471
-8.20848
6.00579
-9.87345
12.3133
-23.7757
-57.4588
54.8046
-184.722
-260.548
354.593
134.202
-146.613
237.369
71.9638
-68.5229
-36.384
118.834
101.034
228.031
-790.161
37.8509
-110.986
-128.364
249.544
19.5293
94.916
-22.0293
173.27
-84.6844
25.4032
170.936
-180.168
201.04
-147.034
82.8074
-31.1906
194.807
146.577
76.9217
-140.492
-82.1281
134.175
-44.104
52.0269
73.2665
-68.0051
-53.5928
-44.8116
-42.4189
90.0816
160.958
54.1226
-157.768
-32.4411
-36.9058
-31.9853
86.4345
-13.2721
41.9416
34.6262
-206.595
5.08099
0.933454
-49.2956
103.031
-53.4966
177.485
-168.517
22.1694
-27.1712
135.112
-175.936
-6.42059
-199.402
-2.29385
64.0633
-21.8105
157.96
-111.984
-45.64
66.2448
-31.2071
13.0551
7.07156
-264.634
109.606
166.185
64.6646
9.31012
-57.2753
-1.25982
5.77219
-33.1634
-113.965
-303.827
-122.058
0.957751
-13.1152
2.45606
-319.756
-41.1827
170.73
96.3103
4.10185
-100.178
-34.1712
-40.6364
27.6309
-71.0422
-8.04297
89.3054
-185.698
-8.42554
108.058
71.6495
30.789
-107.506
11.3746
179.692
63.5869
-32.0805
-212.665
57.816
3.9294
-91.4565
25.5019
10.849
-6.42433
7.48344
-187.79
142.208
77.0532
-21.2912
-1.38248
-24.7158
23.2842
-68.329
-53.3834
-85.8531
51.9335
-44.0891
21.0482
-2.1378
49.4292
-72.5871
21.9661
-155.009
-32.3379
53.5838
-49.1116
81.5947
8.86146
-16.9037
-107.686
179.726
-64.6105
-99.8995
27.2265
-74.2712
105.836
-83.5973
-29.3517
42.3792
19.1583
-92.4779
29.0854
-42.2606
10.3796
-3.81079
40.3406
-18.3637
132.381
-58.9606
-55.0215
95.7075
251.535
30.4478
9.69899
11.5711
-50.4333
-13.2901
129.241
-83.5039
-15.4577
44.6933
39.2981
-25.9719
36.4425
9.21705
-21.2608
-6.49088
23.1961
-74.6392
37.7847
-141.948
69.3315
53.6955
-220.425
12.4566
-82.0372
-10.5764
13.778
5.33304
41.4157
8.57739
-46.8366
9.26459
17.151
77.8244
-34.1337
-92.6154
48.255
3.91241
7.99038
16.4992
-28.2773
28.0567
19.6603
3.26984
-53.2876
41.9573
180.095
-195.467
4.52228
96.7331
-259.459
110.375
138.973
-175.251
111.335
-56.3557
196.146
32.2605
248.293
50.5297
-188.24
-100.861
325.166
5.45662
-485.147
-18.332
-37.7993
85.5451
-170.999
166.624
19.5715
-30.5503
-0.760825
222.043
-170.989
-56.0633
-92.0094
39.6674
110.89
-81.388
-52.6669
11.1754
-76.0608
115.413
210.733
229.318
-334.593
-131.695
-89.9472
-36.1066
274.365
23.1687
62.3674
187.988
-284.791
32.7573
-104.594
42.5837
145.768
14.7893
-195.612
11.9865
-52.6279
-255.745
-43.1639
3.1815
71.6543
8.20584
-80.4297
59.7683
183.603
-186.275
-9.76975
13.6913
46.9672
38.2646
-9.58873
-20.1824
-11.7825
35.6596
-10.3345
61.8229
-90.5272
-66.2846
-118.917
117.347
34.5056
-142.574
-34.428
45.6405
-23.9286
-4.89338
-98.4014
-1.85484
-189.978
296.524
4.64702
40.2596
-61.9385
-115.41
-128.887
257.742
4.06232
73.2728
65.7695
-78.8075
181.724
-197.924
47.7814
-41.5566
19.7828
95.1927
-25.0698
-92.32
5.45625
-186.907
116.738
55.4451
-121.661
47.7646
29.4221
101.784
3.76392
24.7457
-132.876
-106.039
40.0136
-63.446
120.279
-6.4848
101.625
-9.04821
47.7528
12.6265
34.5836
-92.9209
22.4344
-13.1974
-205.548
77.7926
127.596
26.6802
-26.5807
0.496606
-1.17107
73.7122
-62.024
-64.0731
-166.42
10.5021
-68.7149
65.6767
-118.696
-23.2191
94.1031
-53.4546
-103.055
-169.902
57.5962
29.9928
-66.0904
-153.953
-1.07119
28.3974
100.053
61.8546
-12.1886
-31.9431
-59.3587
182.515
-103.211
-124.202
35.6712
-19.5516
14.2638
2.03261
-44.3093
102.485
-139.359
116.389
-2.40876
21.0838
98.558
-486.096
147.535
39.624
-83.8077
-124.758
60.8234
-16.3891
75.2541
-82.7409
95.1031
44.9442
-60.6215
131.01
-90.1488
-110.972
-76.6908
0.280737
69.4414
7.56587
5.31008
-28.6981
-3.47681
27.9667
-51.9068
-5.20339
57.3441
86.9509
73.208
-99.7215
-56.113
-24.4744
9.55213
16.4559
2.1387
108.405
-145.063
158.608
28.1017
-64.1735
180.769
-186.019
11.3958
8.72801
48.3211
-174.954
50.7261
72.0323
-70.321
-112.247
382.042
-184.545
17.8179
0.137894
-20.7554
0.774006
-60.2906
60.0755
42.5864
-234.026
269.428
-206.24
1.65446
1.34285
-83.8949
1.11671
-308.026
467.314
-79.2541
-84.1841
-0.604231
52.9892
24.7944
-18.6038
9.57447
-35.9203
6.10544
47.0708
-26.2051
-13.7328
5.39851
-29.2864
-25.5158
80.5948
-2.24602
45.3489
-13.0956
13.5716
-17.0722
17.8937
199.25
14.4664
-4.91434
-206.66
-186.07
168.145
104.034
69.9455
-32.9067
-64.0914
18.7749
-216.378
113.273
-125.345
105.393
19.5907
5.09219
21.4298
65.3976
110.768
-84.644
167.179
-252.461
95.698
11.3172
-145.842
39.7848
-2.27942
58.1482
-52.5049
-65.3663
41.7555
25.9278
-39.1337
-28.1789
-2.92111
68.5088
-72.2668
-54.995
282.172
-100.33
-32.4916
56.8269
-140.277
123.624
197.241
-101.801
-308.656
23.6124
-81.214
-29.2067
-87.0105
59.5416
87.6595
-75.4928
-14.8195
83.0422
12.6827
168.777
-5.42639
-245.195
4.38714
14.6548
-8.03054
-11.5447
33.6375
121.963
-66.672
-116.658
57.7061
-60.7222
-83.6317
54.301
-1.89352
25.2668
23.1547
-85.874
57.5107
271.832
-87.6201
76.2995
275.07
-589.136
45.8637
289.802
-7.8526
47.2641
-23.2833
-15.0079
-11.8776
-154.373
63.9804
84.6424
-39.4685
98.7437
7.39151
39.3208
37.8724
-54.8428
-191.922
11.2775
521.895
20.5932
-376.885
121.355
-13.0212
-7.62255
60.5331
8.83192
11.0131
-10.7858
79.2144
-105.372
-23.6368
13.5694
-88.5916
98.1122
-112.806
-34.1007
140.425
12.3992
-45.6341
-50.2454
-499.827
-199.715
431.514
-106.547
254.573
164.062
-268.986
-106.77
29.5083
4.08085
-116.007
98.5213
-208.648
171.315
-168.245
-14.0781
6.12701
4.17846
27.4873
-30.5375
-2.83048
-10.5039
-7.86253
37.1776
115.806
-70.4414
-68.9632
-43.9469
74.3605
-38.8065
75.3704
-101.616
43.7214
-20.3344
-37.2657
4.71002
-163.327
198.826
-65.517
29.7168
50.5179
-99.6053
-22.4752
82.1453
-115.705
189.089
-0.937099
-20.0046
-5.26128
39.0604
25.6513
-18.7903
-41.5742
26.7174
-15.5368
-78.5778
63.9479
384.909
-235.415
-72.7464
64.3224
-42.3624
290.082
12.2642
-228.64
149.663
3.23623
76.4318
-113.863
129.532
-59.8288
-200.196
-44.4801
186.201
439.656
174.617
25.1641
-184.193
47.2089
43.0141
105.112
111.452
-5.31006
-220.373
65.2527
-37.5618
79.9624
110.384
-9.74827
200.678
-12.6318
-179.213
-54.4325
204.008
-8.64153
-128.653
-167.645
158.744
-75.7897
-12.9003
-93.7083
69.0456
-210.31
345.26
-176.374
47.476
-119.859
-8.35333
181.543
-55.0632
202.672
-40.5448
-183.429
-2.38409
-26.9024
-58.8343
-128.013
71.8408
31.8241
44.0699
-151.144
84.5422
-13.9179
-26.8618
-44.5109
-18.4083
202.735
-38.0415
-47.1115
-153.43
5.04125
-19.5912
13.7553
80.2263
-82.6718
-78.5349
-1.5598
75.9846
12.6329
92.165
7.45806
-35.3895
-66.0458
98.7071
70.0853
-104.572
41.416
-55.1114
183.046
20.0929
40.245
-47.0819
93.191
-9.17664
-116.263
94.5114
31.23
-119.547
-39.7299
17.2001
64.3225
-46.7305
28.9924
28.1173
102.646
-112.234
-24.7689
107.966
6.12586
-35.427
-83.4271
45.2996
-38.6344
71.0009
37.7663
-70.6395
-100.003
-59.7984
37.91
115.714
-33.7036
-3.27093
-102.065
149.556
-45.6281
6.67195
102.11
-121.74
-181.203
-5.73667
158.31
-269.331
33.8668
-12.6886
12.4548
-34.6887
-258.719
85.2977
27.2545
145.984
289.491
-356.584
307.003
85.7496
-97.7401
-27.1689
36.2292
75.6346
-19.7694
-212.834
122.296
2.65298
-3.75425
30.2597
-36.8638
66.5865
-7.71419
-30.9522
-26.8031
201.417
-80.6901
119.859
-12.2884
27.469
-52.1211
0.00452763
12.794
-11.6783
-2.22208
-29.2433
224.4
2.44996
-50.5004
-21.8184
16.866
50.1045
64.3928
-57.3704
-6.21901
-272.869
70.2034
138.388
60.9343
109.888
40.2767
-93.634
-171.883
-279.863
73.9921
374.456
55.293
-38.1671
7.27068
-21.3375
-102.651
-7.8213
-15.5497
435.72
-558.084
-246.24
98.5457
57.3442
25.4087
118.804
14.7361
-144.123
-14.7196
-42.4965
21.638
-185.514
155.598
2.92963
68.6053
113.889
-188.961
-3.62154
2.10909
38.671
19.5456
-25.4766
17.1834
-33.5818
-21.1023
-52.8753
9.14866
45.3435
82.1132
-2.69261
8.71932
202.176
-363.903
171.983
-43.7084
107.01
-197.643
68.9551
-97.673
-8.87492
228.439
-238.313
184.142
127.997
-83.7474
-20.6589
-42.5494
81.7596
79.114
-111.662
55.3211
27.2125
-30.979
-33.9735
-10.2161
-28.39
34.9581
227.529
-3.43744
38.4639
-37.1837
-168.278
42.1214
-50.8804
-2.42618
21.8822
0.00879621
-22.5252
-6.75257
-84.6034
66.3675
26.6394
89.0229
-5.87516
-142.79
-84.3436
39.3338
48.1765
-12.7747
24.6296
-32.6964
-15.6001
-47.0037
269.565
-182.312
-41.4366
-303.634
241.609
186.189
-48.8675
0.376036
-111.709
-109.097
-88.3764
-43.0824
-2.97981
-17.2984
18.101
215.41
298.768
-240.33
-256.626
-11.9257
-50.0251
68.5565
-3.71237
-87.6858
89.6669
59.5486
7.58175
-84.0003
118.939
-229.942
93.0618
3.08182
15.0345
309.383
-315.405
-1.43395
-34.933
-28.4365
69.4858
28.727
-47.9953
65.3692
133.467
-93.8216
233.9
-276.129
372.719
-406.783
-151.436
526.144
-107.279
-27.5891
103.283
37.4496
175.833
-168.935
-15.054
-32.2866
32.1432
90.9395
-18.3048
22.7954
259.473
-91.9259
-64.4997
-110.663
-125.824
24.8502
119.494
75.8433
-145.233
-81.7628
115.402
1.02039
-34.3231
-81.1773
-58.7171
-42.6853
18.7101
60.47
-68.0744
-11.7041
139.906
-188.417
166.418
-31.7499
71.2437
-13.1945
12.5833
-40.7011
-32.6747
46.8681
-49.9866
33.1222
10.8348
7.41338
-61.0867
-70.752
65.2808
60.5602
-14.7291
-132.907
-104.839
133.58
180.947
-190.831
-121.651
1.16589
77.9553
-35.7974
63.3412
-74.3616
11.1233
-0.744362
15.7278
-269.592
-93.7774
27.5628
78.7009
-13.4458
-25.0874
-79.336
81.5242
22.307
6.80526
-11.7862
4.96817
-121.922
68.8477
-90.8265
-11.2962
196.158
29.2526
35.4258
-51.2621
36.6412
154.454
-61.8952
-62.062
-44.7001
13.927
-135.831
7.33637
122.895
21.4868
-15.9797
3.45047
-95.7576
23.8147
29.5429
49.1332
4.27616
-23.866
170.763
74.9181
-153.519
6.02363
-33.3645
-400.971
599.595
7.39645
-117.471
5.81585
36.3975
5.48891
-5.80625
9.03803
-1.53509
0.00391326
-115.033
31.4313
45.7175
40.7592
25.1576
-42.5729
1.2971
14.2526
219.099
-298.161
221.929
-151.103
-17.3313
94.0348
-144.785
-205.741
-30.5425
25.1014
191.001
-10.0683
-147.083
-18.8797
-84.944
-14.4092
103.276
35.2365
16.8785
58.0474
-134.09
-151.879
-51.863
200.321
0.515756
32.4621
-17.8377
7.32344
-28.1338
51.7995
42.3457
-131.367
22.116
-14.7105
59.6827
-128.318
-45.6994
177.984
6.44246
-20.9277
14.2897
-38.1085
-151.067
151.823
-7.52736
-257.947
-302.951
515.558
72.5867
-15.5635
-35.8398
43.5981
6.90413
-24.3257
-56.4824
45.4412
6.19507
-19.6695
-121.04
-104.945
143.257
72.7245
5.99677
-131.874
27.9769
-69.3604
146.087
-77.1165
23.893
181.987
-127.752
-83.5143
2.95038
6.89172
-11.7138
-181.371
-4.51022
241.123
-30.0612
35.9656
-113.755
-42.234
23.8699
-86.2305
29.0046
43.0544
96.2215
-46.815
197.494
-0.408121
12.7011
-1.1833
-9.63234
61.6335
-61.1527
-75.6317
80.818
12.1119
147.461
-25.4943
-143.705
144.335
162.246
-185.692
-121.899
215.271
-206.488
10.7808
-1.95982
285.18
120.955
-10.9303
-337.607
9.12699
-91.5932
70.8307
-158.517
-102.272
201.859
-3.6687
12.4466
-10.247
-35.3389
-121.238
89.1403
75.2339
60.7539
-10.844
47.7918
-112.183
69.7847
103.955
-36.6317
49.222
-175.387
119.427
24.287
-128.927
-27.6076
-34.495
-37.4617
59.4549
59.8786
-126.991
3.99036
-50.6292
38.0099
-71.5029
-17.2375
-13.8297
-76.374
87.6007
205.455
-95.7619
71.2616
51.8253
84.8028
-76.0062
26.6316
-89.7598
-18.382
-11.309
63.1447
-82.5634
105.649
-547.914
-131.549
484.137
139.114
87.9743
110.669
-143.959
-57.7387
-41.2217
-63.9169
138.344
77.9751
-36.8248
-19.7683
-63.4501
207.654
60.1887
-207.474
-80.4189
-213.701
-16.7577
-60.567
37.9928
-42.6867
30.8529
115.933
-103.232
-1.28115
-5.47386
2.87257
2.95909
-15.7941
-18.8769
32.2766
47.5089
15.7128
-136.069
58.8546
45.1386
-20.3929
-66.9623
38.6871
12.9585
-56.3961
22.1201
-93.1931
-106.359
6.12975
-22.6901
186.636
19.3978
-166.494
72.7282
122.382
-12.1082
15.7794
-60.6891
29.2297
7.53808
96.4938
34.3808
-58.9556
63.7633
55.9684
50.887
11.053
14.172
-10.5811
97.561
-66.8524
-9.39651
-343.441
355.525
-140.944
113.462
275.759
88.058
-239.026
-36.2528
38.3869
27.1089
12.934
-25.3923
10.8308
-31.8064
53.5997
-66.8066
39.4359
-12.8999
-5.47142
-37.1173
52.5619
-76.4079
66.6077
-60.5876
69.8587
-50.7486
-82.5108
43.7155
95.5054
11.2492
-14.2083
16.8714
75.9079
52.4062
-180.238
100.569
44.3571
49.6552
-82.9531
163.62
-52.8732
86.0673
-143.111
114.045
49.3496
72.3029
-8.59669
164.021
-300.515
-127.696
93.498
-18.6347
-115.857
-102.31
-55.3959
42.7394
-135.347
82.8012
-7.51117
-86.8516
155.32
-20.9711
29.3267
23.235
-50.3678
244.215
28.4658
6.53363
-256.111
-49.9142
-40.1504
56.8907
64.3019
-0.0825216
9.51097
79.4782
159.534
71.2645
29.8192
-53.1149
-17.6843
47.8002
-16.7834
-86.4865
-62.0705
18.3158
142.966
-197.208
-68.0856
144.551