/*--------------------------------*- C++ -*----------------------------------*\
| =========                 |                                                 |
| \\      /  F ield         | OpenFOAM: The Open Source CFD Toolbox           |
|  \\    /   O peration     | Version:  4.1                                   |
|   \\  /    A nd           | Web:      www.OpenFOAM.org                      |
|    \\/     M anipulation  |                                                 |
\*---------------------------------------------------------------------------*/
FoamFile
{
    version     2.0;
    format      ascii;
    class       volScalarField;
    location    "7";
    object      T;
}
// * * * * * * * * * * * * * * * * * * * * * * * * * * * * * * * * * * * * * //

dimensions      [0 0 0 1 0 0 0];

internalField   nonuniform List<scalar> 
26625
(
5.93361e-11
-0.00384935
1.40215
0.390985
4.39646e-12
1.20027e-09
2.06171e-05
-4.57992e-10
0.0282766
0.889654
2.91282e-17
0.0572561
-7.64809e-11
0.00303643
1.35505
-4.18304e-11
0.000221094
1.49786
1.59855
0.371645
4.03605e-08
1.67951e-06
4.1432e-18
0.00165341
-2.01766e-09
1.15517
0.0377009
7.27417e-05
2.9418e-10
0.00870689
1.54612
1.01607
0.0301889
0.971091
5.43781e-13
6.61166e-14
5.29183e-06
1.43434
0.00102213
7.95115e-05
0.00027656
1.47188
0.00520614
0.0467297
3.30661e-09
0.123458
3.27157e-05
1.59091
4.43406e-05
-5.31183e-16
0.364087
0.996223
0.111697
-3.65224e-10
0.992151
0.0165203
0.110952
0.319421
1.60469e-06
1.48879
-1.08238e-22
-1.25313e-11
-6.94376e-10
0.00491005
1.35682
2.38306e-19
0.201999
1.5442
-0.030674
0.0127491
1.43013
-2.38325e-14
-0.00576326
7.69331e-12
-6.61774e-19
0.0289888
4.85967e-15
3.55687e-21
0.874188
1.65569
0.947412
0.000334897
0.0591723
0.561877
0.00607118
1.57695
-5.45111e-13
9.88337e-21
1.98238e-05
0.0339821
1.95927
1.46501
0.0410721
0.00919071
0.377446
0.0741495
0.980774
1.19621
0.0195976
0.973792
0.641433
1.51428
1.51766
1.40277
-3.90664e-10
1.03593
-8.73323e-19
1.39025
0.972884
-4.61183e-10
0.265914
1.06796e-06
0.0212761
1.3841
1.40397
1.51331
5.82877e-16
-1.22879e-13
0.000112857
1.46895
1.41921
1.1995
2.06466e-15
3.3464e-06
-4.81994e-07
1.48417
0.937715
9.38752e-22
0.226189
1.18884
1.42322
0.376513
0.0142504
-4.04366e-09
-1.16964e-07
0.0283796
0.00497556
-2.77451e-20
0.158404
-3.5707e-07
1.21189
0.699717
-1.76908e-07
-0.000548525
1.59692
0.324937
1.11137
1.56778
0.000658017
3.65405e-22
0.211595
1.00873
1.02033
-0.000117514
-3.31308e-22
0.296303
0.784616
1.17285
0.993896
1.53016
0.000119534
1.0422
0.682836
1.22185
5.63687e-17
-1.88401e-08
1.56135
0.868656
1.08094e-05
3.97897e-16
0.119031
1.84153e-16
-2.32355e-05
0.0825106
1.01068e-21
0.9776
0.855257
-0.000131716
1.31938
8.9338e-17
-2.04483e-05
-1.13482e-06
6.33579e-17
0.375216
7.13591e-05
0.858428
-0.00040071
0.960451
1.61914
0.691249
0.07452
0.570105
0.305821
1.48442
0.0803597
-5.8267e-12
0.77925
-7.47825e-07
1.51914
4.3335e-14
1.17981e-05
1.46624
1.89136e-15
0.000527179
-5.03064e-16
0.244961
1.62154
1.49179
1.02089e-06
0.201856
1.28318e-17
0.697898
-1.32672e-11
1.02474
-8.12526e-09
0.560666
-0.00801197
3.24288e-05
0.000280162
0.938135
1.46759
3.62761e-17
3.80048e-18
7.10278e-06
0.00078749
1.47031
1.43735e-13
0.819403
0.0010373
0.00566491
1.35878
0.000342761
1.42569
0.00064843
5.59234e-17
0.000715531
0.440763
0.00104703
2.23825e-17
0.587141
0.0954535
0.319529
0.598633
3.51033e-16
1.07401
0.00313254
4.84202e-06
1.73988e-14
-4.09044e-18
0.226524
1.57004
2.34246e-05
3.35907e-07
0.386751
6.70722e-05
5.18282e-06
-5.92702e-20
1.87643e-08
-0.00043125
0.682798
-1.75073e-10
1.723
0.147901
0.00190144
1.36695
0.778398
-2.2988e-15
1.54757e-12
-6.89822e-06
0.709734
0.00246663
1.51454
1.26824
0.00102246
0.37189
-7.33328e-19
0.120943
0.293061
0.175689
2.46632e-05
7.9343e-06
7.67788e-18
0.173076
0.434544
0.264216
1.1461e-15
0.478078
-1.96921e-11
1.51034
2.20145e-06
-1.70633e-17
-9.92432e-08
1.27405
0.023745
0.0339137
3.86106e-21
-7.54716e-22
0.362035
-3.75126e-15
1.4269
0.917763
5.24186e-09
1.46079
1.54338e-11
0.0382335
3.07483e-22
6.35033e-15
2.45405e-08
4.15499e-18
2.45964e-06
-3.00243e-06
-5.18167e-25
-5.01264e-20
0.341478
0.169005
0.0111807
0.00759578
-1.73923e-05
1.02282
0.0278861
-3.54321e-22
0.00589446
1.49811e-05
5.03217e-06
2.83759e-21
0.00464995
0.531688
1.54228
0.00169449
0.000629242
-0.0708223
-9.34685e-09
0.897551
1.21317
0.185698
7.41806e-06
0.291022
3.01014e-05
3.66523e-22
0.824356
1.68728
0.577616
0.975324
0.000954146
0.118211
0.446566
0.36879
0.0161773
8.38813e-06
2.19074e-05
1.52245
9.24524e-05
0.000564766
1.69446
0.00166815
0.306751
0.0597533
1.57767
1.17028
1.631
0.886219
-2.52285e-16
-0.0280019
4.97454e-05
1.47992
0.0193297
0.00781746
1.64555
1.0344
0.0057706
1.57823
1.40826
0.0192359
-4.69766e-16
-6.31142e-10
0.96255
0.00543956
3.38524e-19
1.04516e-20
0.774816
1.05633
0.588078
0.1215
0.141915
0.0193894
-0.0353212
1.01639
0.00280032
0.000129677
0.000503388
-4.34995e-19
-3.1399e-09
0.000374354
0.627749
0.000518139
0.915657
0.839615
0.000385874
0.698706
0.189361
0.385699
1.05613
0.463583
2.16353e-15
1.27663e-10
0.0013574
1.26676
-2.2975e-07
-2.55402e-05
0.82588
0.240123
1.47361
-9.16723e-12
-1.20615e-15
0.00260683
0.434762
0.0374671
0.375577
0.591904
4.1207e-13
-1.74673e-18
2.52274e-12
1.31605
1.07634
-1.51335e-05
1.73829e-08
0.9541
-0.000652608
6.33316e-16
0.0307779
0.948199
0.174706
0.000841488
1.87526e-15
0.660858
0.454841
3.64272e-18
0.00315814
-3.41385e-07
0.699444
0.00179365
-1.36065e-14
0.135006
0.302696
0.385975
1.18058e-06
1.29175e-22
0.499047
4.23525e-05
0.428424
-0.0194659
0.812235
-9.44334e-18
1.04604
1.17137e-06
2.15883e-06
0.00340203
-7.76342e-18
1.06547e-09
1.33864
0.158635
1.55476
7.29201e-09
0.194629
-3.07394e-05
0.105516
2.59059e-22
0.0332122
0.059229
9.94105e-21
-1.65822e-14
1.72642
0.000551831
-0.000487436
-0.000217613
2.33527e-13
0.93135
0.00871077
0.512342
-6.60879e-17
1.44297
-4.14233e-11
1.40882
1.4178e-16
1.53712e-05
4.73117e-06
0.0256231
0.191107
0.0470428
-1.72646e-10
0.871378
0.958424
-1.01306e-10
0.426568
-2.83817e-16
1.55698
1.45046
1.34832
0.0980436
4.28741e-10
1.54584
1.19987
1.34465
0.0810479
0.967054
-1.90864e-17
0.00214451
0.963859
0.352979
1.75138e-09
0.0575933
1.09557
1.35987
1.36056
2.2469e-11
4.87372e-15
0.00137002
1.44181e-06
-1.89277e-08
0.8597
1.00229
1.66776
-1.13807e-19
-0.00012453
-0.00124955
3.17318e-16
0.923194
0.0776931
0.00451648
-3.75378e-10
5.76949e-10
1.41278
0.945357
-0.000663492
0.644143
0.937383
0.762452
0.027593
0.247792
-7.3448e-11
0.00182499
1.2158
-4.24619e-16
1.53571
0.00316239
0.0241174
9.38277e-06
-3.8125e-07
-2.56025e-10
-4.15144e-12
1.18887
1.91629e-10
1.41222
2.47709e-05
-0.000412825
-0.0115134
0.877892
0.00418693
0.983752
0.827212
0.00155484
0.000195838
1.05313
1.4117
-2.95837e-05
1.14102
9.79766e-17
0.168574
1.48273
1.64895e-15
-6.92631e-10
3.08105e-10
0.95893
0.134678
0.795686
1.45056
6.28842e-20
0.917872
9.5178e-14
3.59314e-05
-5.33866e-15
1.01345
0.000156603
0.288784
0.00185914
-7.41082e-07
-0.00365898
9.33368e-06
0.491019
0.000123952
0.000913933
0.703905
6.31775e-05
2.83649e-18
6.39418e-07
1.32984
0.801284
0.0822133
0.0673654
3.28631e-06
-2.60311e-13
0.00496719
0.954371
0.0864168
1.91443e-16
0.0140154
1.61287
0.00128655
1.0941
-1.85773e-05
1.15298
1.21347
-6.68333e-07
0.970414
0.419431
0.0235951
0.0722839
1.29335
1.63227e-09
1.23534
0.131569
-5.40377e-14
0.00393329
0.205449
-0.0148877
1.49625
2.29874e-06
1.83089
0.10275
-0.0153279
6.35746e-16
0.000480877
0.0377959
-2.8466e-06
-1.78478e-05
1.03528e-15
0.00087624
0.0134004
0.0154033
0.166681
-2.18121e-16
2.66812e-09
0.941924
9.59882e-11
0.0609834
0.892535
1.98768e-05
0.00212731
-1.80401e-09
-3.21809e-16
0.958745
6.02043e-07
2.94933e-14
1.27143
1.60252
0.438137
1.36752e-05
0.00464232
1.40752
0.870977
-1.49599e-12
6.63857e-05
1.38773
-3.31729e-11
0.997948
-0.0939877
0.813029
1.82106
0.0973998
-3.00797e-15
0.0123844
0.455578
1.73202e-13
1.29306
3.01567e-21
-4.36622e-14
0.763562
1.55582
2.15764e-05
-9.9722e-13
0.850345
-3.2649e-09
0.00168718
1.31876e-14
-3.96068e-06
-7.36628e-19
1.55904
-1.68961e-06
0.198564
-0.00036252
-1.51413e-15
-1.88177e-22
5.03863e-09
-1.23391e-07
4.46697e-15
-2.23252e-09
2.76972e-05
1.18335
0.000230171
0.0789604
8.66832e-05
0.00610801
3.3827e-09
0.00593336
-2.28542e-20
0.287215
2.23328e-12
0.229757
0.0518248
0.885824
-1.18217e-19
1.64924
1.1031e-11
1.06851e-20
5.99466e-20
7.0288e-14
3.25079e-20
1.1835
1.77505
0.00558139
1.02393e-07
1.44329
0.0883413
3.02578e-22
0.826669
1.22855
5.74792e-18
0.635553
6.32931e-07
0.0526554
1.2154e-07
-1.51885e-07
0.0593596
0.00153071
-4.29141e-14
1.47941
1.53623
0.612247
0.0788608
-2.31226e-14
0.00266064
0.00570851
1.21097
0.0165397
1.96973e-06
-3.24547e-20
0.933423
0.0442753
0.124494
0.985196
0.046388
1.05612
1.50457
6.31498e-14
5.10198e-05
0.0464386
-5.59505e-08
0.001758
0.137863
0.913785
1.15193e-12
4.5225e-06
0.391446
0.0153539
-3.7067e-07
0.264619
8.7743e-19
6.67287e-15
0.944751
-1.19628e-15
-2.34518e-10
-5.75849e-10
0.47735
0.451873
-2.61231e-16
1.50871
-2.13182e-07
0.0542237
-5.4074e-10
1.94002
1.0297
-4.52184e-11
0.923734
0.0378572
0.388727
4.58889e-08
4.95907e-05
0.000429358
7.85214e-11
0.000994271
1.6253
0.00311247
0.0227044
-0.00205879
1.41493
1.47405
0.412204
1.3818
4.39767e-05
0.00701959
0.0557324
0.0272536
1.46095
0.0320386
1.10716
1.58372
0.020183
0.0370932
5.33105e-20
2.51561e-05
8.61123e-17
8.64487e-13
1.71192
0.000282323
-3.46182e-13
2.63855e-05
-4.81672e-15
0.0116063
0.0348795
0.61163
0.000652658
3.82377e-22
-5.48491e-16
1.42214
0.00412259
2.15284e-17
1.05699
0.906643
-3.04308e-10
0.120682
-0.00270135
2.3663e-07
1.70352
1.54941
1.12673
1.84877e-14
8.20479e-06
0.418883
1.24899
2.55555e-15
0.000111034
-1.38935e-13
0.256509
1.88676e-05
0.59935
7.61071e-10
-3.11315e-10
1.42478
-0.0336552
-1.3323e-14
1.49086
0.111995
0.527503
-5.93828e-13
-1.20324e-21
1.10897
0.000511713
-9.20046e-07
0.0100404
0.00708572
1.43213
-0.000964628
-2.04206e-15
3.05967e-07
4.6246e-06
0.000114969
0.225482
0.199378
3.79974e-17
1.4654
1.69802e-17
0.47717
-2.13422e-09
-1.45146e-09
0.13862
1.26913e-05
1.59156
-3.3699e-22
1.00209
0.00992923
7.10853e-07
8.50277e-10
-1.03459e-05
1.49038
0.0403219
2.47713e-05
0.217376
0.0209006
-8.95069e-18
9.57558e-06
8.77571e-15
0.00031482
1.52194e-16
-2.95278e-05
6.79662e-15
1.19739e-09
0.00161519
0.344444
0.384634
1.01001e-05
0.00638916
-1.03595e-16
-1.03178e-14
1.548
0.190195
-1.63271e-07
-6.77703e-10
-0.0130308
5.94131e-18
0.0152049
1.16844e-06
0.00973638
-2.63498e-14
4.11994e-22
0.00517838
0.728917
-4.17187e-19
2.57711e-07
1.12119e-07
1.4017
1.04668
0.00961289
-1.68347e-18
0.0044953
-5.57777e-20
0.00285541
0.620532
0.00370616
0.00387475
0.000347217
7.34811e-06
-4.78157e-17
1.71633e-05
1.5219
0.720132
2.79142e-06
3.71042e-16
-0.000280964
1.17637e-21
0.158894
1.55826
0.01277
0.00125164
0.0041484
-1.01361e-14
3.04213e-06
1.36425
0.0389956
0.0977738
1.02193e-18
1.31538
-1.27414e-18
0.0249595
0.99354
0.00125134
6.49766e-13
-4.32409e-13
-1.30674e-13
1.32276
1.00991
0.846403
4.31507e-05
1.15837e-10
1.24494
1.00117
0.988213
-1.39609e-05
2.85624e-14
-8.61598e-20
0.968282
-3.20567e-08
1.37642
0.0123962
1.03294e-05
0.204614
6.89537e-07
-2.05319e-07
0.965547
8.3348e-18
9.46202e-05
0.034201
1.01733
1.06218
7.61095e-10
-1.18908e-11
1.38541
-4.29619e-16
1.00469e-14
1.10723e-05
1.00904e-18
1.09916
1.43371
-9.14709e-11
2.72248e-05
-4.0354e-12
3.25687e-06
0.0891402
0.080273
-3.04748e-05
-3.32031e-17
0.000157592
0.183676
2.80488e-11
0.000193731
0.00194859
0.121896
1.58669
0.00854474
0.970714
-9.86284e-08
6.3388e-14
1.34887e-05
0.411513
1.46862
-4.48517e-15
0.00157854
1.11447
2.03357e-19
0.970931
-2.5168e-13
6.73856e-12
0.00320986
0.147226
1.84008
0.99602
2.96773e-10
9.95538e-05
0.995154
1.49006
0.00647423
0.164817
0.548894
1.50714
1.00128
-1.31042e-16
0.00485533
0.000520261
-2.66232e-11
-0.0007071
3.9436e-05
-2.14661e-09
0.999311
1.00908
-0.0734978
4.75155e-19
0.26265
0.000161253
0.000159544
2.60885e-06
0.171844
0.000122929
-7.77582e-06
1.84786e-11
1.65148
-1.06849e-21
-0.00411952
-2.18025e-15
1.46408
1.48633
1.47009
1.46611
1.86408e-14
0.0265421
3.21804e-17
-1.61176e-17
1.21735
0.0141015
-2.73906e-06
0.000319362
0.449713
0.556719
0.0114792
0.068484
1.64689
7.41697e-08
1.64875
9.75033e-13
0.101813
1.44339
1.29247
-5.8447e-08
2.30074e-16
0.00175751
-3.55693e-15
1.5088
-1.68548e-19
0.974449
0.0156597
-3.09084e-06
-5.29435e-16
0.000804698
0.0934054
-2.8643e-05
9.92613e-06
0.795292
-1.59548e-15
0.867983
1.29159
0.315536
1.48649
1.29974
0.0483183
3.70842e-15
-2.19776e-06
1.40051
-6.08764e-16
1.60798
0.434742
1.73687e-06
-7.7783e-15
0.149964
1.50453
0.0453731
1.39107
0.299526
0.383465
0.609792
-5.84316e-14
5.52897e-15
0.70356
0.941616
2.2885e-05
1.17774
8.77926e-12
-2.02004e-16
2.27274e-19
-6.78935e-10
0.997168
1.20938
-1.85623e-07
0.00102325
4.78351e-18
0.0016867
0.000479755
6.15971e-17
0.188097
0.000260339
0.119422
0.534334
0.130294
1.12011
2.03417
1.50833
0.994991
0.000313055
2.92532e-11
1.18381
1.74297
-2.7197e-20
0.00117917
2.82941e-05
1.49426
0.169314
5.07949e-06
-4.50223e-19
0.00166633
1.73889
0.965491
-0.0554117
1.08572
1.83686
0.0925522
0.567223
1.2727
9.52092e-05
1.75849e-18
0.326548
1.53425
5.92031e-05
1.70694
0.174867
2.54506e-11
0.798038
-6.88674e-07
-4.33903e-07
2.68036e-05
1.01123
-0.000135836
1.18914
1.23369e-11
0.202786
-7.77903e-05
3.82137e-12
0.322543
0.0224339
0.207716
1.48094
0.204315
1.94786
0.000554897
5.09211e-20
2.41093e-07
1.49766
0.027116
0.932673
0.00585166
-1.60807e-13
2.82463e-20
9.22047e-10
7.69619e-05
0.00295273
-8.15131e-06
-5.47114e-14
0.106584
-3.85126e-06
0.528713
4.023e-09
-0.000705135
0.525341
0.000687376
0.352652
1.95296
-4.80091e-16
-1.59901e-22
-4.73375e-08
0.0236434
0.0455337
1.0467e-05
-0.00123542
1.64214
0.172399
0.00526708
1.62103
1.48769
1.61251
2.2482e-13
0.00290859
0.122194
1.28791e-06
5.45454e-15
0.00330592
-0.0016193
0.000339189
1.19484
0.000443471
1.52624
-3.40229e-07
1.73396
1.58479
0.889858
1.47089
7.2935e-21
-0.230068
0.220705
-1.14404e-18
3.97532e-06
-1.63531e-08
0.017528
0.000100496
5.13886e-10
-0.0011071
0.152872
0.00274684
5.26258e-23
1.05379
0.0209611
1.68616
1.4864
1.46632
0.0197698
1.79217
2.85164e-05
8.07265e-09
-5.60173e-14
9.4795e-23
-1.89123e-06
5.42317e-05
0.00110214
0.00745872
2.61772e-22
0.995139
-7.58917e-24
0.0453433
-1.65264e-19
0.393499
0.847803
0.287052
8.29075e-14
5.94659e-19
2.61758e-05
0.931145
1.01762
0.379922
0.00351669
0.215244
-1.56753e-15
-0.00175374
0.00416723
0.0560356
1.65192
1.27594e-10
0.969537
0.000548832
6.73808e-06
0.0714351
-4.59893e-17
1.05043
1.48623
1.6925
0.310752
1.12882
0.905178
-5.20486e-10
0.877174
0.895169
1.43988
-1.55705e-13
0.182225
3.30425e-13
0.0175123
-0.000579979
-2.65935e-09
1.05076
-2.68173e-06
0.00543522
0.00652406
0.998169
-0.0004264
1.48542e-06
0.0317626
0.24148
2.13465e-16
0.994047
-0.016073
1.01933e-11
-7.81194e-19
-3.50966e-15
1.28683
0.977341
0.000474602
0.351065
0.0957711
0.0166247
-6.69574e-09
2.04414e-21
1.55981
1.48796
1.00367
0.0449817
0.123264
1.63972
0.000130147
0.014549
1.40913e-05
-4.41138e-11
0.000401078
1.35379
0.0709039
1.62526e-05
1.65714
0.00930784
-0.0410796
-9.44525e-17
0.0286977
0.0685775
4.14876e-05
3.31029e-10
0.403887
0.246394
-0.000580436
8.08122e-07
7.43346e-17
0.301029
1.52587
3.56547e-15
-0.000918806
5.40384e-20
-2.93112e-13
2.11241e-05
1.39004
0.000777109
1.54422
1.58947
2.17519e-19
0.00256092
0.903285
-3.52578e-13
0.912265
-6.07563e-07
0.0406045
1.45274
0.349844
0.291383
0.00569268
1.55225
1.45244
1.27616e-11
0.00461094
9.78498e-16
0.0114603
0.86866
0.125664
0.000929136
3.09985e-07
1.08191
1.41104
1.38656
0.111993
1.39911
1.56742
1.01992
0.210206
-3.35465e-12
0.351261
2.0541e-05
6.13376e-16
0.123923
0.000658622
-0.000840318
0.26034
0.478369
0.718607
0.253085
1.16611e-05
-1.33818e-14
0.278388
1.41955
5.80483e-13
9.64484e-22
0.00014893
0.223918
0.000818504
-1.97713e-07
0.295185
0.243907
0.0151723
-2.3101e-06
1.36986
0.000169519
0.00168441
0.99249
0.000260601
1.6086
0.0254073
1.46554
0.00630128
1.22247e-05
8.89334e-07
0.000112009
-1.83964e-17
1.4469
-1.17864e-06
-4.33886e-15
0.00013985
0.0150679
1.29887
-1.61196e-13
0.981857
1.4289
0.166159
1.71007e-06
3.63321e-16
-9.54224e-06
2.36398e-19
0.00477811
-0.000553225
0.717365
0.162338
3.69102e-06
0.000643283
1.08879e-06
1.62908
3.45471e-15
6.45807e-09
-0.00123771
5.55861e-06
-6.22396e-10
0.955083
7.17472e-18
1.44531
0.00405309
5.44591e-23
-0.00229209
0.000773084
1.25511
0.0004518
-8.64046e-12
0.233949
-0.000321225
1.19394e-18
0.537821
3.93901e-16
-6.89941e-07
9.68403e-17
1.35553
-3.49161e-12
0.49001
0.0016562
1.60117
0.11328
1.2057
0.374645
-1.93492e-15
5.63764e-05
0.000116085
0.00268509
0.00755222
1.10458
-4.6009e-09
2.32094e-17
5.42282e-06
1.30381
0.515805
6.01987e-15
4.01617e-05
0.968607
0.0139072
-7.01561e-05
0.0174818
-0.0279094
-0.000557849
-1.29706e-10
1.96145
1.53161e-17
0.000167954
0.145133
1.60438
1.52858
1.3307
-1.64851e-19
1.45041
5.29351e-14
-1.23178e-08
1.52626
-0.000272768
3.60587e-15
3.62969e-05
0.582762
0.0477425
0.00107701
1.44773
-7.82317e-08
0.0499976
0.0344958
-0.00010888
6.45793e-12
8.27116e-19
1.15017e-13
0.123749
1.16663
0.902733
0.0563879
0.0185785
-2.88278e-09
3.64846e-16
0.0189536
3.01305e-08
1.41354
1.32367e-17
1.69101e-05
0.0190149
1.27765
0.0528188
5.05101e-14
-0.0272675
1.22264
0.0854184
3.93494e-15
-9.75682e-08
0.000342848
1.66097
-5.38822e-17
1.51644
0.0145518
1.57493e-16
-8.27438e-10
-2.17867e-13
0.546179
1.71122e-06
6.47453e-06
0.00194934
0.724469
0.542807
0.000164333
0.32077
0.00753549
0.0089606
0.75918
4.33222e-07
1.41029
1.39025
0.146363
1.01977
1.46642
0.367832
0.568563
3.55502e-06
8.05781e-05
0.215852
6.63308e-12
3.04998e-06
0.00928089
0.29502
-7.9591e-12
4.24721e-05
0.0031439
-0.000256369
1.03789
0.472347
-4.11275e-17
1.03471
0.276717
1.84081e-14
1.33726
1.35939e-19
1.27384
1.91815e-07
1.65766
-6.32306e-18
0.124732
0.0855059
0.000175856
7.44864e-05
9.49868e-16
-0.000847966
1.51571
0.0136138
1.52849
-4.87253e-17
2.40913e-10
1.33871
-2.51551e-14
1.48745
0.596949
1.93834e-13
1.68098e-19
1.91709
1.48456
0.174837
0.00249016
-7.23544e-15
1.28207e-18
6.64295e-12
-7.7732e-22
3.68859e-05
1.00385
0.912105
2.55041e-07
8.32066e-08
0.965913
-3.08428e-13
0.0130426
3.01331e-17
3.10755e-07
0.160521
5.07033e-17
1.44949
0.0335443
0.963002
0.00016936
-3.90789e-11
-1.0653e-12
-1.61655e-07
-4.59053e-16
-9.47506e-07
0.732662
0.000183243
0.00127624
0.000144044
0.699746
1.31021e-06
-3.56897e-05
0.0033336
-0.00016209
2.85661e-05
1.52779
2.62457e-22
-0.0001091
0.95581
1.31243
0.435146
-8.63404e-15
1.02508
0.00290997
3.94173e-13
0.882338
1.13372e-15
0.139937
1.0028
3.59186e-17
9.09726e-18
1.44642
0.000361332
0.00212758
1.79653e-16
0.0335935
1.13561
9.10559e-05
5.9239e-09
-7.74183e-11
3.2515e-05
0.0211585
0.041025
4.24167e-23
0.000818805
4.66111e-05
0.988264
1.00564
4.11731e-22
-4.83122e-05
0.00452927
3.16199e-14
7.09198e-05
-9.06434e-19
1.28361
-1.18118e-22
-3.78059e-23
-5.50111e-22
-0.000340928
0.72324
1.37504
-6.24477e-05
-2.45276e-21
5.58449e-18
-1.1721e-19
0.0196146
-8.05696e-15
1.14955
0.560103
0.986556
1.57581e-11
-1.23393e-12
4.23704e-07
0.152019
1.52459
0.190636
0.332772
1.1444
1.07722e-17
0.986477
-8.75593e-05
-1.29377e-16
5.67125e-11
0.000328881
2.34387
0.134504
6.07112e-11
0.16692
0.0977869
0.0543946
0.726364
0.00102531
1.17014e-14
0.0808317
1.5652e-15
1.30395
6.66334e-15
2.45147e-22
2.02823e-14
0.000133742
0.9961
-1.30572e-13
0.913857
-4.84936e-20
0.0352782
0.0129852
0.056717
5.8812e-09
0.663401
1.07284
-2.34302e-11
0.0102451
0.726533
-9.97723e-09
0.0183345
1.59764e-13
1.3994
1.19354
0.000208783
-0.121972
0.00205585
0.730029
5.3593e-11
0.265867
1.43123e-17
-1.71469e-22
0.995482
0.310915
3.30243
0.236257
1.18603
3.63956e-07
0.316376
0.885954
1.40756e-14
-1.02188e-10
0.0660175
-7.09411e-09
5.32122e-15
1.65963
1.07504
1.54351
0.184891
1.6088
0.533329
0.000166497
0.0229152
1.39944
0.155799
0.0118909
0.04332
3.32166e-05
-3.54818e-06
-1.43423e-05
0.777222
0.233873
1.0315
1.05586e-13
3.0033e-13
1.0917e-05
1.10438
1.13865
0.0501705
1.00407
2.40948e-10
9.62655e-05
1.0158
0.00174949
1.43925
1.53279
0.21644
1.27618
6.00364e-13
0.000524398
-1.30377e-10
0.978329
0.60886
0.979805
2.41315e-16
0.99069
0.1114
1.06721e-20
-2.29765e-17
4.00631e-08
1.62155e-10
7.80125e-10
-0.00807709
-0.00103976
0.0321793
0.000221762
8.80062e-14
0.29066
1.20353
1.37569
0.0836285
1.18803
-5.18937e-17
9.94144e-14
0.967367
-0.0139952
1.84425
0.102601
0.248323
-5.78086e-13
1.15206
1.56862e-05
7.75971e-05
0.483475
-1.9585e-08
0.354741
1.0054
2.32127e-13
-1.26994e-13
1.0353
-1.53628e-07
0.00209089
1.48525
0.00591116
0.000188414
0.940991
0.069249
0.12361
0.208711
1.24124e-06
9.28912e-18
1.02266
-4.19215e-09
0.121615
0.749927
7.67041e-05
0.00638508
1.50611
3.4983e-11
1.31634
0.108036
0.000145313
5.84264e-11
5.98588e-07
3.1518e-07
0.765805
-1.03176e-11
2.31732
0.872255
0.120299
6.66808e-20
0.996266
-4.79095e-07
0.0127455
-0.000888145
1.72185
0.153656
-7.9802e-21
2.43802e-06
0.000556593
1.52568
2.57435e-14
1.71952
0.00165008
1.07468e-17
0.112994
-3.34294e-20
-1.23312e-05
0.761243
0.406809
0.931145
1.05485
1.14566e-15
-1.90616e-06
0.00104297
1.59866e-06
3.84979e-06
1.51503
1.35802
0.632307
1.22036e-14
1.41101
1.81871
-7.38e-17
-4.6696e-20
2.04396
-0.00191217
4.71966e-23
0.245597
1.60811e-06
1.04323
0.0555004
-1.96433e-16
1.01123
0.0638205
1.63329
-1.29526e-17
1.3916
0.978175
6.98673e-13
-5.8999e-10
0.0077562
0.000137176
9.03966e-12
1.61963
-7.46532e-15
1.42082
0.677555
1.51136e-07
0.220665
0.00131643
0.370973
0.0344248
-0.0016464
-0.00152527
0.849037
0.94833
1.22997e-05
1.66445e-07
1.97988e-08
1.70677
-2.36921e-16
0.104856
-1.25563e-14
0.0200924
1.44022e-13
0.676941
0.723589
1.60259
0.370962
3.60442e-05
0.704988
0.886395
-2.62289e-09
-1.0561e-08
0.00016725
-1.71966e-08
9.74942e-05
2.8262e-05
0.000240936
2.65123e-19
3.93616e-15
4.93982e-06
1.83825e-06
2.42588e-19
4.73164e-16
0.0508614
-2.75681e-06
0.00387928
4.86445e-16
1.70379
0.212074
1.48405
0.561866
1.55934
1.42361
1.47958
-9.42983e-17
1.3489e-11
6.23366e-06
0.001978
0.174891
0.0495326
-4.33133e-13
0.973716
1.55542e-13
2.27309e-11
5.69394e-20
4.46846e-05
1.03983
2.05353
0.0157737
0.220524
2.4924e-19
4.57238e-05
1.19642
1.54205
5.33268e-05
0.0615658
0.987463
0.000654776
1.77997
1.47453
0.501323
0.165886
0.00165609
0.822196
0.905157
1.66434
0.259279
0.0338432
1.97466e-05
2.97443e-14
0.802436
0.585441
-1.24755e-12
1.62064
1.59261
0.0136194
1.02027
5.54877e-13
-2.24757e-20
1.36159
-0.000792486
0.28257
0.0902592
0.643931
1.51074
2.79257e-05
0.961416
-6.11586e-11
0.110758
0.00584217
-8.27307e-17
1.6288
0.000696261
1.22188
1.1647
-0.00391824
0.000155781
-9.49723e-07
1.55131
0.0020817
0.0497936
0.0744656
-3.89082e-20
8.39256e-12
1.18834
-1.8051e-11
-6.85255e-05
1.20853
1.2447
1.13132e-16
-1.88083e-13
-0.0103512
0.00578056
1.55997e-06
-0.00163252
1.47043
2.14161e-05
0.0386398
-2.14869e-08
0.00116416
0.190547
0.424554
3.8912e-14
0.101652
1.39447
1.40427
3.70931e-08
7.45535e-10
0.315204
0.00307992
-1.58989e-06
-1.41574e-13
1.53725e-18
9.72254e-06
0.000285118
1.40053
-1.66969e-14
-2.77937e-20
1.13757e-11
0.0348667
0.0241685
0.00152098
2.20026e-05
7.96833e-17
1.55854e-13
0.00148479
5.76533e-05
1.62037
0.014532
1.50388
0.000144768
0.00855176
2.35064e-11
4.0965e-05
1.81052e-16
0.0995835
-3.07322e-09
0.420606
0.340238
0.0972004
7.13265e-13
-1.10588e-14
0.968107
8.6088e-08
0.000745121
1.01825
5.00543e-14
0.0209926
0.0063416
6.19418e-06
1.44374
-7.60058e-05
1.78737e-11
0.704923
1.63539e-11
-4.34211e-10
0.000907357
3.66055e-10
0.00292292
-1.90368e-14
0.0420982
-7.87118e-10
1.46036
6.31708e-06
3.0191e-05
-4.48014e-16
0.74992
1.02719e-12
0.968211
0.0302506
-3.81356e-07
-4.86756e-12
0.00106574
-4.04125e-10
0.742442
1.13604
0.589929
0.75255
0.747423
1.51667
-1.60573e-11
1.70132
6.20784e-05
2.00177
0.00274112
4.93077e-14
8.7011e-13
0.866317
-9.54594e-20
-2.87663e-15
0.181119
-3.44341e-10
0.018093
0.499872
1.55523
1.69898
4.70493e-17
9.15672e-10
3.83416e-06
0.987459
5.3103e-14
-2.67501e-14
0.33115
0.817656
0.00146414
-1.18959e-05
1.14132
3.29269e-16
-2.56355e-17
-9.82752e-08
0.252133
2.30243e-17
0.943555
1.53059
3.64756e-05
4.56851e-07
1.53076
1.19416
0.0110805
0.000195339
2.75015e-10
2.8198e-15
7.11403e-05
-2.82429e-06
-9.87385e-12
1.25446
-4.3538e-11
1.28999
0.845904
-3.93297e-07
0.0492897
1.65001
-1.59323e-20
7.68584e-07
1.05598
-4.35537e-11
1.4057
0.00156769
-3.22149e-05
-2.21666e-08
0.00165072
-7.79411e-22
1.39215
1.52197
-1.531e-12
-0.000206539
1.54393
1.56666
0.998308
0.0854491
-0.0317412
1.70376e-05
3.5128e-06
-1.92259e-06
1.40908
6.18686e-16
0.000101614
0.0413281
5.19294e-06
0.000125266
1.89103
1.3005
1.28323e-05
-8.74765e-16
0.00965258
4.78309e-14
-7.61166e-20
-6.89995e-12
4.35804e-06
2.04491e-06
2.09186e-21
-1.09925e-20
1.30441e-09
8.73205e-06
-4.98313e-10
1.2433e-06
1.4901
0.804575
1.3824e-21
0.160334
1.75681
-7.3931e-24
-0.00124211
8.15267e-07
-0.0110645
1.1846
0.00346042
1.51603
3.08586
-4.08483e-05
0.0107806
-7.96324e-08
0.588762
-9.50592e-10
0.000282245
-5.72528e-07
1.88523e-12
0.822657
2.24497e-05
0.000174515
0.124486
0.246224
1.0631
0.0973525
1.0415
0.0078041
0.233202
4.28485e-07
0.0019462
0.0424909
-5.33791e-20
8.47554e-05
-2.92406e-17
1.30506e-07
0.330549
0.00516928
0.96687
-6.12106e-17
3.70832e-11
8.33185e-12
4.35773e-17
3.01297e-11
8.00416e-12
1.70305
0.195207
-0.00131988
0.661332
0.00317201
1.6515e-12
-0.000704529
5.72694e-06
0.232445
1.43075
1.62797
5.98966e-05
0.105177
0.0603108
1.04061
0.305334
1.51902
0.064415
0.0242564
1.40915
1.31175
1.4524e-19
0.160214
0.964321
6.64696e-15
4.71281e-08
0.639638
-0.000484875
3.0138e-06
1.53839e-14
0.0513805
1.04883e-15
2.75026e-13
-3.1416e-19
0.21923
0.105265
6.49096e-13
0.94413
0.000383895
1.54377
0.00680577
0.017434
1.54793
0.979942
0.00100277
1.22666
1.27274e-15
2.32313e-05
7.8443e-06
0.000148806
0.452138
-6.67463e-17
0.400596
-1.28659e-09
-0.00828679
1.02948
1.57205e-05
0.000371944
-1.77883e-12
-1.86568e-19
0.252783
0.126557
4.15999e-16
-1.64282e-06
2.31847e-05
1.21119
1.50752
3.82195e-21
0.815335
1.55979
2.45143e-09
-9.27188e-07
0.843867
9.03477e-06
4.28567e-06
-3.29836e-15
-8.33111e-20
-5.33032e-16
-1.08647e-15
2.03963e-14
0.0312613
7.49032e-12
1.2251e-11
1.45315
-3.60959e-17
-3.54056e-16
1.02505
-9.08704e-05
4.98918e-20
0.546301
0.76252
-2.45517e-17
1.33929e-14
0.0280722
0.0251922
1.83671
-1.11348e-05
-3.05915e-16
0.00169074
0.0249549
0.815541
-1.22881e-07
0.925548
3.37095e-16
2.47084e-15
-7.79531e-17
-8.8867e-18
-4.35609e-10
3.6188e-05
0.00313467
-3.07465e-18
2.87426e-06
1.36364
-1.45986e-18
0.910916
5.72435e-13
7.34998e-16
-1.88076e-06
1.51665e-15
0.00422373
2.32396e-10
1.47856
3.57574e-15
4.27372e-11
8.28577e-15
-3.78917e-19
-6.21705e-22
1.77347e-13
1.67616
8.42554e-17
5.48693e-07
2.81767e-05
5.73805e-17
-3.97275e-10
0.963879
-1.37566e-19
4.54981e-12
1.62126
1.46236
0.0337403
0.0116421
1.07168e-06
-0.000339047
4.01267e-08
5.63509e-19
0.81016
0.882623
0.0004824
2.82972e-12
0.00956298
0.42893
1.43832
1.01662
0.825431
1.89866e-17
0.147552
-2.68011e-14
0.000106115
1.01837
-3.39848e-07
1.70797
9.39897e-18
-5.98433e-09
4.80159e-08
-4.12857e-23
0.365999
2.32417e-20
1.35319
-0.00620249
1.77432
0.0446918
-1.37976e-16
1.97962
1.49123
0.965655
1.06429e-19
0.763619
0.698134
1.57304
0.0126524
0.0211008
1.59033
1.68847
0.765379
1.19044
1.30427
-6.47791e-18
0.000893035
1.01985
0.891159
0.000164026
0.484271
-2.76883e-12
4.03572e-12
7.44238e-21
0.829272
6.90414e-22
0.00981105
1.45346
7.26854e-11
-5.49373e-12
-0.00206478
0.00193933
-0.00172656
0.810669
0.857142
8.71627e-16
0.0267195
0.107398
-3.65461e-08
9.57978e-12
0.00171977
0.300704
1.16438
-0.000327967
1.98394e-16
0.778638
0.27462
0.826698
0.734901
0.584774
1.36238
7.21928e-14
0.0406537
0.772457
4.87158e-05
0.000109574
0.414163
0.827399
-2.80108e-19
-1.05703e-10
7.5708e-11
0.418854
0.00516569
-5.70969e-16
1.4809
0.0577803
0.00014349
1.03148
0.000271471
0.321024
0.989293
1.59448e-12
-6.98005e-19
1.24982
-1.73098e-15
1.45423
2.08219e-15
9.24482e-05
-6.74663e-23
0.711177
-7.82643e-06
-5.92893e-23
0.00494682
0.895314
3.7708e-16
1.28836e-07
0.262298
0.59931
0.916785
0.758256
-2.49095e-14
0.862001
0.0117758
2.42135e-12
1.54364
1.53446e-06
0.997745
-7.55204e-22
2.48192e-07
1.00935
9.44313e-06
0.00010907
-0.00275116
1.1479e-05
-6.83035e-18
1.1977e-14
0.127326
0.979319
1.37104
0.139034
-1.6923e-17
0.00574301
1.39866
2.60682e-14
0.0162874
-1.8955e-20
0.719438
2.15172e-12
0.347846
0.0586294
0.982589
1.27129
1.55367
-2.84204e-05
4.83861e-12
0.00788926
0.857939
0.974835
-1.5688e-18
-0.00197629
0.759203
0.245493
-5.29822e-22
1.61587e-12
0.000512793
0.00432665
0.920806
0.00207471
7.90791e-16
-1.66829e-10
1.57032
-2.00436e-07
1.11404
1.04533
2.52244e-05
0.00460288
0.000345617
1.48708
0.000121202
5.53563e-06
2.78617e-09
3.94573e-17
0.169984
7.00606e-07
0.000247051
3.85211e-09
9.552e-11
1.5499
-1.66569e-21
1.24363
-1.36069e-13
6.09723e-06
3.97893e-05
0.00975943
1.47404
1.59421
0.823232
0.0789209
0.000835231
0.000790861
0.0434406
1.61346e-12
-0.00144683
0.859146
1.07195
-2.18423e-13
1.54538
2.76945e-22
0.714791
0.260379
1.52236e-13
0.0225901
-0.000817719
1.27453e-12
1.34366e-06
1.52941
1.09879
-0.00390302
0.372158
0.0242463
1.59812
6.98817e-07
2.74596e-06
-2.19739e-13
-7.83455e-07
0.0199701
0.604423
6.74317e-21
0.00398355
0.908332
-9.64224e-17
1.02156
1.5916
9.07119e-05
3.12103e-05
0.0340979
-4.72992e-12
0.53505
1.28434e-07
-0.00570867
0.000617811
-1.97361e-13
1.47759
-4.04197e-05
1.38165
0.378961
7.14918e-06
0.686021
1.789
6.95635e-14
-0.0152928
0.00907962
0.00384059
0.00485828
1.47037
7.82605e-05
4.73009e-15
0.0353781
1.58583e-23
0.616205
0.82094
0.000119736
-1.53314e-07
7.48829e-06
5.91346e-06
7.60385e-19
-1.26899e-06
1.43716
-2.28281e-21
0.00271127
2.85214e-16
-1.01411e-14
1.81096
2.75603e-15
1.24723
0.0100499
2.17826e-05
0.00043355
-0.000221426
0.226322
1.00862
0.00266182
0.0555327
-6.37265e-10
0.812743
3.08563e-16
5.87349e-09
-1.19151e-13
0.00021896
0.002846
1.69732e-07
-3.25635e-20
-4.5203e-07
-9.65123e-18
1.06331
0.000102546
1.51732e-16
0.0520866
-2.70714e-18
1.32628
4.35216e-05
0.00986867
0.00192187
2.61674e-16
0.313501
1.23963
-1.36322e-07
1.46091
1.46306e-09
7.67507e-11
0.138154
5.1929e-07
0.000388338
1.31362
2.14972e-10
-1.83601e-05
0.679959
2.25683e-12
0.000288915
0.000748082
1.58195
0.979118
0.526458
-6.2121e-07
1.11754
0.900054
0.036502