/*--------------------------------*- C++ -*----------------------------------*\
| =========                 |                                                 |
| \\      /  F ield         | OpenFOAM: The Open Source CFD Toolbox           |
|  \\    /   O peration     | Version:  4.1                                   |
|   \\  /    A nd           | Web:      www.OpenFOAM.org                      |
|    \\/     M anipulation  |                                                 |
\*---------------------------------------------------------------------------*/
FoamFile
{
    version     2.0;
    format      ascii;
    class       volScalarField;
    location    "13";
    object      T;
}
// * * * * * * * * * * * * * * * * * * * * * * * * * * * * * * * * * * * * * //

dimensions      [0 0 0 1 0 0 0];

internalField   nonuniform List<scalar> 
26625
(
0.00820388
0.305101
1.40208
1.64035
0.00112644
0.029791
-0.00110188
0.0181684
0.404732
1.63502
-1.78419e-08
0.795688
0.00203023
1.50859
1.38155
0.00296743
1.49541
1.487
1.5982
1.07699
0.004641
0.421158
7.63445e-07
0.947341
0.00890353
1.35502
0.667434
0.813492
0.0236721
1.08307
1.54119
0.996476
0.0729995
0.971111
-0.000124374
-1.65526e-05
0.202802
1.43196
0.277944
1.01733
0.551485
1.46432
1.56809
1.52816
0.0463746
1.64667
0.338884
1.58548
0.178725
-6.70007e-08
1.6311
0.996986
0.927481
0.00951162
0.992315
0.274852
0.647811
1.54507
0.215588
1.48695
-5.77346e-12
0.0015262
-0.000261221
0.214979
1.44252
-7.61164e-11
1.12121
1.5386
0.219465
0.315991
1.43008
-3.19295e-08
0.417552
0.000556198
-9.19528e-08
1.58124
4.73284e-05
3.01593e-10
0.949358
1.6392
0.947409
0.419043
0.785187
1.37184
1.50509
1.56052
2.47952e-05
1.41358e-08
0.41146
0.905717
1.97506
1.47851
0.39101
1.48527
1.07162
0.757331
1.03512
1.21898
1.36739
0.96859
0.648921
1.53854
1.51088
1.4017
0.025692
1.03834
-1.97902e-09
1.38157
0.973667
0.00355214
1.63638
0.110077
0.762855
1.38412
1.37114
1.51331
1.18734e-05
6.34396e-06
0.26196
1.46889
1.40107
1.16101
1.28399e-07
0.397043
0.173148
1.48321
0.907387
-5.82278e-11
1.10992
1.15108
1.42326
1.27117
1.41366
0.00476912
-0.0366445
1.34815
1.27981
-1.20337e-10
0.766159
0.118572
1.21379
1.72528
0.0935233
0.998606
1.59668
1.4804
1.11005
1.57016
0.43509
3.3113e-10
1.47764
1.01717
1.33898
0.708715
-2.58143e-13
1.10541
0.957034
1.47928
0.98352
1.52503
1.2603
1.03985
1.19736
1.21058
2.105e-06
0.00660879
1.56397
0.890521
0.460733
-1.67336e-06
0.994366
3.67925e-06
0.718548
1.11032
3.39386e-12
1.77819
0.85441
0.714602
1.32184
4.99106e-08
0.569147
0.220959
2.17401e-08
1.5893
0.820418
0.857843
1.05628
0.95013
1.62112
0.844623
1.03443
1.01513
1.38547
1.45478
1.4436
0.00304117
0.923382
0.092808
1.51274
-3.42364e-06
0.194286
1.46753
-2.57385e-06
1.49517
-4.1063e-07
1.11116
1.79223
1.49181
0.0756776
0.924395
1.02952e-08
0.819447
0.000798768
1.02522
0.00305556
1.0214
-0.104168
0.311441
1.12747
1.11104
1.46759
-9.92698e-08
-4.9802e-10
0.260912
1.42326
1.46717
5.82039e-06
0.991504
1.0716
0.963358
1.39025
1.26058
1.42742
0.373291
-4.18081e-07
0.720318
1.59279
1.15937
-1.93367e-08
0.567884
1.54645
1.33437
1.4507
7.45992e-06
1.06453
0.935264
0.783526
-1.10016e-05
2.52839e-06
1.45676
1.57058
0.974848
-0.00053855
0.921868
0.769822
0.206576
6.08145e-11
-0.000909883
0.990284
0.674657
0.00149145
1.71616
0.735034
0.890973
1.36695
1.56438
1.52046e-07
2.71561e-05
0.563905
1.50739
1.7676
1.51688
1.26806
1.10772
0.334335
1.66372e-10
1.07747
1.3986
1.18849
0.250167
0.48824
-9.63953e-08
1.66911
1.0232
0.97922
1.8318e-05
1.47108
0.0004841
1.55326
0.231841
8.65492e-09
0.0833836
1.30231
1.54367
1.16904
6.35345e-09
-5.09385e-11
1.15333
-4.9204e-07
1.4271
0.866865
-0.000617256
1.46081
0.00331417
0.304821
-7.00481e-11
6.73586e-09
0.0446976
7.26878e-09
0.380857
0.314159
-5.447e-13
1.37082e-10
1.4307
1.21716
0.797651
1.22354
0.552057
1.73043
1.46926
-1.54961e-11
1.34133
0.460366
0.234822
6.18474e-09
0.966393
0.932292
1.53678
0.345429
1.2346
0.518032
0.0059771
0.889411
1.21318
1.61766
0.190877
1.07504
0.5316
-3.68278e-11
0.828445
1.64491
0.705842
0.969445
1.28857
0.921531
1.26751
1.0345
1.50393
0.0551022
-0.124596
1.52246
0.68488
1.39074
1.69454
0.877659
1.08515
1.09856
1.57942
1.19976
1.63259
1.02709
1.64559e-06
0.112093
0.740354
1.47965
0.926365
1.58484
1.64781
1.04071
0.623812
1.57835
1.40825
1.2644
-2.68671e-09
0.00501702
0.961723
0.928758
-1.22093e-09
3.31114e-09
1.58592
1.01932
1.03127
0.949487
0.202715
0.56501
0.0739938
1.00148
0.318087
0.382042
1.65215
-1.04779e-09
0.0075419
0.57294
1.83267
0.152509
1.63619
1.63891
0.974933
0.990987
1.52202
1.2091
1.02667
1.61026
1.14062e-05
-0.00133345
1.3701
1.2726
0.107343
0.224406
0.843211
1.61889
1.67918
0.00014333
-5.49788e-09
0.477413
1.58863
0.398944
1.3377
1.4747
-0.000105144
2.17244e-07
2.11367e-05
1.69412
1.07325
0.484256
0.00371648
1.09581
0.0924807
9.17933e-09
0.815424
1.61905
1.62801
0.139976
2.76056e-05
1.44358
1.22805
-2.26954e-08
1.34775
0.565368
1.76133
1.05213
-1.33623e-07
0.545653
0.974197
1.66555
0.404354
2.22457e-10
1.43159
0.901767
1.6582
-0.151653
0.82298
-1.5265e-07
1.11951
0.114952
0.332919
0.793472
7.27115e-09
0.0407757
1.33872
1.54936
1.55136
0.0265935
1.57259
0.00796941
0.991477
1.3126e-10
1.02363
1.76108
1.08898e-08
-4.52102e-07
1.97233
0.878599
1.32821
0.0479008
-8.20646e-05
0.914508
0.958
0.938851
1.66118e-07
1.51988
0.000355772
1.40883
3.76272e-06
0.59583
0.529242
1.37148
0.858595
1.56621
0.00227439
1.31562
0.974167
0.00193424
1.55815
-3.28968e-07
1.55629
1.48842
1.56726
1.38815
0.029269
1.54603
1.20313
1.3551
1.5479
1.00722
-2.54546e-07
0.806373
0.960226
1.19151
-0.000498359
1.64877
1.12842
1.37755
1.35893
0.000629204
5.14578e-05
0.89967
0.344553
0.0109133
0.953205
1.00494
1.72955
3.04374e-11
0.766834
0.78818
7.93485e-06
0.927002
1.39036
0.992761
0.00480526
-0.000911283
1.41276
1.77867
0.799264
1.15247
0.995505
1.43968
1.26237
1.55289
0.0127507
0.572945
1.20823
-8.57819e-09
1.53554
0.350924
0.958502
0.825288
0.175577
0.000131313
2.32371e-05
1.0493
0.00453594
1.41004
0.657681
0.133824
-0.141849
1.01767
0.868399
1.69274
1.07701
0.681426
0.462634
1.18548
1.41172
0.581297
1.14053
9.76855e-08
1.06961
1.47122
2.55638e-05
0.0477614
0.0111585
1.73567
2.30801
0.868353
1.45056
3.46906e-10
0.918981
3.19295e-07
0.866537
-3.84852e-07
1.00845
0.587312
1.78966
0.7022
0.156025
0.695535
0.15617
0.876615
1.04098
0.181509
1.3625
0.898507
3.02263e-09
0.321129
1.34514
0.954243
1.0411
0.985795
0.0755178
2.60553e-05
0.798838
0.95461
1.76152
-1.38846e-06
0.448296
1.61446
1.24353
1.08235
0.326023
1.14418
1.20972
0.0137358
1.08175
1.40264
0.281919
1.23807
1.30034
-0.00105794
1.20489
1.19493
5.34349e-06
0.651244
1.08532
-0.00676377
1.49625
0.140458
1.83088
0.753284
-0.161115
-2.20011e-06
0.637585
0.541761
0.0914725
0.69734
-1.14499e-06
1.01162
0.372771
1.09395
1.54785
6.59408e-06
0.00238209
0.967155
0.0031183
0.214997
1.571
0.335733
0.345758
0.00103151
5.66796e-06
0.952068
0.0475304
2.28588e-06
1.2876
1.56195
1.91326
0.370816
0.786489
1.40898
1.23143
2.61304e-05
0.99663
1.39147
0.000407771
1.03869
-0.186439
1.30442
1.83752
1.75707
1.08679e-08
0.609092
1.06133
1.9258e-06
1.31573
6.14556e-10
1.93341e-06
1.04042
1.55662
0.511352
-5.02597e-05
1.44193
-0.000345262
0.734613
2.42346e-06
0.23626
-7.78102e-09
1.56015
0.594451
0.961019
0.752813
-5.4149e-07
1.79136e-12
0.0156045
0.17886
-3.27481e-06
0.0105152
0.643715
1.18268
0.963204
0.56822
0.571081
1.29257
0.0340244
1.11662
5.11833e-09
1.31722
-0.000115839
0.976483
0.860976
0.975282
-2.61785e-10
1.64941
2.18168e-05
1.73592e-10
-6.54776e-10
-2.1159e-05
7.49585e-12
1.18632
1.82229
1.38391
0.0739781
1.47362
0.339217
-1.78199e-11
1.5408
1.20858
3.90787e-09
1.67436
0.326541
1.49277
0.0055217
-0.010795
0.461867
1.4305
0.000107321
1.47941
1.53626
0.600354
1.51088
6.15288e-07
0.959749
0.72359
1.21202
0.849572
0.0907277
8.19629e-09
1.12382
1.59633
1.4423
0.952227
1.25852
1.07287
1.50867
0.000311892
0.283406
0.408949
0.0511527
0.692705
1.4432
1.61216
0.000517217
0.668489
1.42386
0.790551
0.148443
0.964738
-4.30417e-10
-1.34494e-07
1.05451
-4.07007e-06
0.00254303
0.00295994
1.81524
1.81741
-1.75076e-09
1.50869
0.158001
0.907836
0.00453255
1.9416
1.02468
0.00159539
0.939892
1.42274
1.16442
0.205216
0.844071
0.7963
-4.59084e-05
0.979703
1.69104
0.26086
1.1162
0.997428
1.41496
1.47825
1.37105
1.38262
0.184947
0.738913
1.41335
0.971372
1.46098
0.0340277
1.04392
1.58228
0.11083
1.33406
4.40288e-10
0.491088
-1.85529e-07
-1.44097e-05
1.72476
1.00138
0.000453529
0.763875
1.79115e-05
0.510848
1.14135
0.712059
0.224792
2.14552e-12
-1.87033e-07
1.42771
1.79242
-3.14462e-07
1.05944
1.04481
-6.24791e-05
0.858169
-0.104053
0.233954
1.70317
1.54941
1.13016
0.000111315
0.716637
1.76917
1.25329
-2.31339e-05
1.20073
7.42371e-05
0.767219
0.811497
0.912349
0.001212
0.000237827
1.42814
0.302829
3.5497e-07
1.49012
1.18881
1.66335
0.000635192
-1.96021e-11
1.86498
1.25438
0.175515
0.509639
0.416199
1.4321
-0.0187974
3.07221e-06
0.0516371
0.251947
0.503693
0.804623
1.60823
-2.40583e-07
1.46537
-1.33535e-08
0.953133
0.0081245
0.000313607
1.52421
0.0863443
1.59156
1.43308e-11
0.995868
1.06776
0.232678
0.0107065
0.240163
1.49244
0.628878
0.889069
0.525889
1.35032
-3.27534e-09
0.423815
6.58747e-05
1.24127
-8.72301e-08
0.655239
2.25238e-07
0.00818168
0.936025
1.77622
1.38852
0.412948
1.48311
2.58649e-08
9.71764e-07
1.5479
1.57631
0.0926011
0.00752353
-0.0651036
1.06769e-08
1.50614
0.0800449
0.555406
-2.25259e-06
-2.60783e-11
0.953817
0.98661
-6.35131e-08
0.202919
0.020168
1.3979
1.03943
0.785676
-3.21855e-11
0.868552
-3.93025e-11
1.06596
0.720281
1.787
0.859565
0.391953
0.69426
-3.35643e-07
0.806102
1.52875
1.44807
0.242032
8.59787e-06
0.0235791
4.21558e-11
0.892041
1.53676
1.07583
0.859522
0.220514
-1.57466e-06
0.582803
1.36646
0.173923
1.02641
6.61729e-10
1.31515
-2.78615e-08
1.114
1.37374
0.558873
0.0003261
-5.80558e-05
0.000189162
1.36659
1.00745
0.847438
0.876134
-0.000527699
1.24468
1.00103
0.980012
0.460975
-9.74048e-06
4.18014e-10
0.993097
0.0675505
1.37613
0.0426227
0.256373
1.26523
0.03661
0.0771696
0.973707
-6.97524e-09
0.851761
0.959013
1.01746
1.06584
0.0186525
-1.39143e-07
1.37272
-1.31355e-08
-1.49316e-06
0.195835
3.52922e-10
1.1
1.7121
0.000433774
0.936409
0.0062846
0.562741
0.408348
0.00587155
0.0548662
-7.6197e-07
0.366251
1.17114
0.00407107
0.0341359
0.866694
1.04841
1.63216
1.02679
1.03394
0.115173
-1.77754e-05
0.265229
1.61223
1.46856
-1.52662e-07
0.73395
1.09381
4.33332e-09
0.966435
0.000320038
0.000406578
1.68282
1.02931
1.78942
0.996413
0.00104706
1.10531
0.989827
1.4895
1.58252
0.530134
0.712021
1.50275
1.00109
-1.72327e-07
0.892541
0.880307
0.00134871
0.630234
0.929626
0.00743494
0.999069
1.00624
0.169525
2.69853e-08
0.707866
0.598687
1.28239
0.433928
0.632173
0.892797
0.0969613
-0.000480717
1.64446
7.35044e-10
0.00918561
6.49121e-07
1.46412
1.48634
1.47476
1.46612
-5.26778e-06
1.58994
1.14656e-06
-4.51004e-08
1.26744
0.52736
0.463545
0.666256
1.52907
1.48613
0.913558
0.944814
1.71174
0.0531888
1.64687
-4.43629e-06
0.866914
1.44904
1.29312
0.104747
2.67306e-08
1.20653
2.95472e-07
1.50831
1.50808e-10
0.975678
0.86795
0.0842578
1.84069e-07
0.885892
1.45911
0.651839
0.0830098
0.964674
-5.82756e-06
1.03644
1.38466
1.07021
1.49042
1.29866
1.06702
-1.30184e-06
0.198352
1.42287
3.17607e-08
1.60798
1.47745
0.508034
1.89894e-07
1.69088
1.50452
1.05752
1.39068
1.06232
1.76947
1.50818
0.000123986
3.52772e-06
1.41594
1.01698
0.756829
1.31719
0.00110063
2.86053e-07
3.84724e-08
0.00446738
1.51949
1.29084
0.0577927
0.0226007
-9.21756e-09
1.03349
0.066112
-1.20732e-07
1.45968
0.735968
0.162548
1.23747
0.632916
1.13044
2.032
1.51499
0.994993
0.770311
-0.000318342
1.1937
1.77772
1.88586e-10
1.06685
0.988601
1.49398
1.02125
0.0711496
1.88959e-09
-0.00463302
1.70747
1.04927
-0.0182667
1.3589
1.82301
1.6806
0.953482
1.41773
0.344933
-9.59514e-10
1.05089
1.53473
0.631855
1.71321
1.18993
0.000116994
1.63782
0.175696
0.128523
0.501948
1.00601
-0.00694026
1.25062
-4.99152e-05
1.6637
-0.0177324
0.00315416
0.790701
1.26025
1.543
1.48191
0.79735
1.94789
0.425377
8.77714e-10
0.19816
1.49766
0.783995
0.961626
0.724587
3.96688e-05
2.06963e-10
-0.000118
0.95064
0.952933
0.269588
0.000164972
1.12401
0.311943
1.37384
0.00740545
0.889498
1.02432
0.250588
1.59293
1.95624
7.45886e-06
-2.02074e-11
0.0521635
0.506885
0.959517
0.697078
1.00776
1.64225
1.59826
0.838932
1.62225
1.48715
1.61257
0.000245798
0.0502959
1.41375
-0.0126699
-1.89056e-07
1.45254
0.879024
0.573653
1.72199
0.582405
1.52669
0.0103482
1.74646
1.58854
1.64667
1.47114
4.55154e-09
-0.0529462
1.60676
1.73946e-10
-0.053788
0.0930798
1.30475
1.14027
0.067067
0.954402
0.301873
0.0316604
-1.19071e-11
1.05376
0.480141
1.66698
1.48025
1.46525
0.499204
1.79389
0.484327
0.00406221
-0.000177639
1.83782e-12
0.401205
0.955301
0.78783
0.213103
-3.34065e-11
0.994319
-9.80864e-13
1.14362
-3.70958e-11
0.389235
0.849322
1.53811
-4.78745e-07
-3.5204e-08
0.583025
0.929734
1.01607
1.694
1.39297
1.50218
-7.81958e-07
-0.00118942
0.905057
1.08715
1.63725
0.0193204
0.951914
0.91922
0.490302
1.34858
-3.53176e-07
1.05264
1.49592
1.69692
0.964974
1.0914
1.57001
0.0144262
1.06667
0.925674
1.51293
-9.85555e-06
1.62364
-8.83823e-06
0.6462
0.957868
0.00985297
1.04167
0.216899
0.659744
1.75438
0.99771
0.0127263
0.270142
0.317303
0.267463
-3.24723e-08
0.995173
1.53738
-9.97323e-05
1.80563e-08
4.48216e-07
1.32954
0.978433
1.08692
1.50186
1.11163
1.54838
0.0234513
-7.88462e-11
1.55983
1.56513
0.993572
0.260871
1.19152
1.63973
0.478265
0.795173
1.00166
0.00290185
0.76572
1.36057
0.965419
0.507105
1.68365
0.0903239
-0.194163
-3.65134e-09
1.06694
1.5151
1.00012
0.00954822
0.943673
1.20952
0.778261
0.332823
-2.71677e-07
1.22083
1.52587
1.89453e-05
0.537602
-2.90092e-10
-3.05605e-05
0.128176
1.39004
1.67021
1.54437
1.58937
-8.53158e-11
0.833654
0.968348
4.40726e-05
0.945622
0.142205
0.441216
1.453
1.49759
0.759335
0.243964
1.55738
1.45244
0.000422802
0.719211
5.88947e-06
1.13279
1.00779
0.297218
0.521119
0.267313
1.08111
1.41224
1.44299
1.04525
1.39907
1.56585
1.01526
1.67719
2.64011e-05
1.4637
0.440732
3.89942e-05
0.625537
1.55781
0.858624
1.70795
0.819474
1.46659
0.973693
0.416854
-1.77032e-05
0.790184
1.42012
1.7365e-05
2.77655e-09
1.60557
1.14476
0.25491
0.0939205
0.967558
1.10773
0.445885
0.266259
1.38048
0.61904
0.127486
0.990973
1.42857
1.60728
0.778657
1.5017
1.19397
0.586939
0.0862046
0.688435
-3.61618e-08
1.44692
0.196427
-1.08754e-06
1.44256
1.35591
1.29837
0.000304095
0.981823
1.42868
1.57552
0.31548
4.00855e-06
0.28728
2.95984e-08
0.380178
-0.024356
1.46301
1.21638
0.294615
1.02122
0.363018
1.63639
-3.01808e-07
0.0609395
0.132574
0.16122
0.148769
0.956992
-4.69898e-08
1.60983
1.18837
-4.84027e-12
0.160695
1.3494
1.65544
0.743554
-0.000303624
1.10751
0.798088
3.2089e-09
0.942696
3.00725e-07
0.151783
-1.03908e-08
1.35458
-0.000175732
1.01619
0.857685
1.60085
0.702769
1.20278
1.32292
-1.42988e-06
-0.011789
0.321491
0.0245807
1.00736
1.1051
0.197292
-4.3534e-08
0.776635
1.30386
0.931951
1.19297e-07
0.801109
0.968116
0.84252
0.637869
1.18076
0.106692
0.630956
0.00178077
1.95542
-1.40604e-09
1.04837
1.02758
1.63899
1.52857
1.35031
2.34152e-08
1.45158
-6.34572e-06
0.0176244
1.5196
0.813026
-2.51535e-08
0.651722
1.12509
0.192021
0.643892
1.44746
0.0928751
0.311731
1.5271
0.81261
0.0014536
2.87916e-09
-7.32848e-06
0.826822
1.18385
1.0042
0.846399
1.29505
0.00361708
5.66771e-06
0.259804
0.0805212
1.41721
-2.81914e-07
1.24593
0.590973
1.27765
0.497892
2.80654e-06
1.80537
1.22
1.36455
1.03058e-07
0.0867719
1.2756
1.6314
1.30301e-08
1.51876
1.70865
6.39844e-08
0.00494842
1.14836e-05
0.762342
0.466174
0.669146
1.61364
1.54018
1.25542
0.561692
0.81465
0.722199
0.867245
0.80216
0.0218398
1.41027
1.37258
0.910095
1.02332
1.47279
1.22426
0.586477
0.43975
-0.00486262
1.64476
0.000148996
0.237717
1.30553
1.12683
-2.24209e-05
0.68011
0.841533
0.00657867
1.03783
0.98645
-1.1723e-07
1.29759
1.3381
-9.28763e-06
1.33717
-4.52362e-09
1.27707
0.0884695
1.65716
3.00298e-10
0.61381
1.39428
0.553827
0.594591
7.38732e-06
0.274431
1.63139
0.699851
1.52847
-1.63248e-07
0.00213998
1.38596
-1.15565e-06
1.48767
0.969652
-8.31551e-05
3.19349e-10
1.91709
1.48307
1.02388
0.907637
-3.39777e-06
5.23914e-07
-0.00028608
-5.17738e-11
0.0525094
1.09101
1.07066
0.122456
0.0894865
1.4386
-1.17659e-05
0.33194
-9.95076e-08
0.0392569
1.67745
2.57357e-06
1.45497
1.11456
0.966565
0.967376
0.000533633
3.531e-06
0.296121
3.60875e-07
0.235141
1.14481
0.70144
0.90607
1.10907
1.67841
0.356666
0.197245
1.79454
0.775228
0.290258
1.52778
-1.49797e-11
0.0869131
0.965318
1.47481
0.764332
-4.47684e-07
1.02454
0.521934
4.04772e-05
1.02834
1.91946e-05
0.426536
1.00282
-5.93043e-07
1.72218e-08
1.44639
0.240114
1.00368
4.99952e-06
1.04627
1.12552
1.71784
0.00719499
-0.000117892
0.861607
1.12769
0.235145
-1.40436e-12
0.697611
1.1148
0.986154
1.00517
-6.2441e-11
0.590505
1.47451
-1.65988e-05
0.767677
-2.84197e-09
1.2836
-1.00706e-11
1.98212e-09
2.75022e-11
-0.0778542
1.37073
1.37731
0.615742
1.51694e-10
-5.3002e-08
-6.85707e-11
0.167157
-3.85051e-07
1.32613
1.77703
0.993129
0.00108443
0.00121476
0.232896
0.958844
1.52199
0.87856
1.41843
1.14866
-1.01211e-07
0.988051
0.885932
1.53737e-07
-5.26934e-05
0.0759235
2.37348
1.79024
0.00100154
0.650293
1.45662
2.14749
1.56538
1.2869
8.87136e-07
0.707476
-1.98531e-05
1.39363
-7.21376e-06
3.69374e-11
0.000203607
0.0572996
0.993201
1.71249e-06
1.03476
1.65342e-08
1.47508
0.595562
1.2211
0.00586526
0.936896
1.07305
0.000136698
1.51015
1.01723
0.0226248
0.648697
9.75625e-06
1.39941
1.42961
1.13331
0.428933
0.443292
1.6169
0.0018496
0.999043
1.66867e-08
-1.40432e-10
0.991993
0.959548
3.2601
0.780537
1.20388
0.278943
0.883149
0.874373
0.000102758
0.00211212
0.343399
0.0146916
3.66305e-07
1.66224
1.0675
1.54032
1.71218
1.60817
0.937995
1.27281
0.256053
1.66724
0.828762
0.193245
1.07696
0.220331
0.351502
0.95409
1.13522
0.371146
1.13409
0.000143024
0.00017539
0.856255
1.13084
1.16345
2.39386
1.02004
-0.000521676
1.09774
1.0143
0.140203
1.4359
1.55608
1.68491
1.35723
-2.1821e-06
0.517078
0.00174503
0.978559
1.06597
0.995486
-2.04445e-08
0.990708
1.58986
1.26675e-08
4.84364e-09
0.101529
0.00108741
0.0046812
0.366001
0.0994612
1.66652
1.22689
-2.28892e-05
1.54785
1.60761
1.37602
1.22342
1.35919
2.35992e-08
0.000293606
1.00448
0.123463
1.8947
1.7888
0.834899
-0.000411479
1.14097
0.901697
0.639401
1.06669
0.0216596
0.500954
1.02978
-4.41126e-05
-3.19427e-06
1.03802
0.0473556
1.24426
1.48499
1.29644
0.371623
0.892974
0.747058
1.29637
1.60671
0.122514
-9.19838e-08
1.02623
0.00733946
0.835158
0.934162
0.4814
1.35308
1.50574
0.0109119
1.31562
0.322926
1.17349
-0.000216523
0.345131
0.294563
1.09679
1.23226e-05
2.36856
1.51365
1.00332
-1.15806e-10
0.995064
0.191839
1.05324
0.56398
1.72227
1.61078
1.66436e-10
0.469659
0.789072
1.52537
-7.61363e-06
1.7195
1.6205
-2.28838e-09
1.24961
-1.15592e-09
0.0864153
1.09181
0.684998
1.13499
1.0491
1.71466e-07
0.344465
0.963393
0.133968
0.0551892
1.51533
1.31962
0.739559
2.27745e-06
1.46011
1.82543
-5.29619e-08
-2.29363e-10
2.06211
0.111273
-3.846e-12
0.543013
0.287197
1.0081
0.284337
2.2027e-07
1.00404
1.07714
1.65458
9.57351e-08
1.76064
1.64509
0.000760338
0.00169728
1.79714
0.377137
0.00139572
1.78682
3.9772e-07
1.42776
0.67279
0.097142
1.37274
1.43537
1.32764
0.770076
0.40593
0.253573
1.1503
0.977887
0.359462
0.22011
0.0822495
1.97878
2.61253e-06
1.49435
-5.92764e-05
0.693814
1.4797e-06
1.79102
0.889494
1.63114
1.33455
0.434662
1.02403
0.88646
0.012367
0.0205654
0.951399
0.0382184
0.789328
0.356615
1.03209
-1.38303e-09
1.02527e-08
0.696195
0.21757
-1.57882e-11
7.38578e-08
0.490507
-0.0777774
1.15694
4.26731e-07
1.67284
1.2548
1.48786
0.73062
1.50136
1.47754
1.47954
-2.0992e-08
0.00159121
0.368598
1.58356
0.481317
0.668865
8.63591e-05
0.986735
-3.41612e-07
0.00757658
1.95094e-10
0.253604
1.03947
2.06466
1.54751
0.567498
4.69765e-10
0.862498
1.20027
1.54395
1.07188
1.51995
0.987767
0.758832
1.8015
1.47437
1.07086
1.17227
1.08422
1.01185
0.871972
1.6644
1.60249
0.911232
0.289692
-1.26932e-05
1.09337
1.0297
-0.000289538
1.62164
1.59174
1.13512
1.02074
7.06304e-05
2.13262e-08
1.37175
0.99079
0.825268
0.967564
1.55047
1.50943
0.7624
0.961074
0.0101632
0.828028
1.07547
1.48303e-08
1.62852
0.696954
1.31308
1.59118
0.373265
0.297888
0.133778
1.55129
1.45203
0.74436
0.966092
-1.99576e-10
-3.75725e-05
1.26072
0.00725835
0.732854
1.2085
1.26716
3.6744e-08
-2.88087e-05
0.0011863
1.23285
0.23504
0.00944587
1.47043
0.122038
0.516315
0.0716149
0.938189
0.839395
0.639256
3.30873e-05
1.22638
1.40566
1.39084
0.086731
0.0013817
0.591261
0.780852
0.294177
-8.04632e-05
-1.09e-08
0.686573
0.833561
1.40156
8.3121e-05
-1.6747e-09
0.00222976
0.332719
1.16597
1.00158
0.172847
2.11934e-06
3.65194e-05
0.642498
1.00485
1.62824
0.31573
1.50388
0.565781
0.411958
0.00565242
0.479373
-6.20882e-07
0.298256
0.00897345
0.544511
1.62128
1.00395
0.00181445
-3.77709e-06
0.969667
-0.000487115
0.956343
1.01366
-2.68908e-05
1.02661
1.06852
0.234952
1.43999
0.707934
0.00265651
0.80442
0.00122806
0.00512387
1.54517
0.000126159
1.70485
2.75287e-05
1.18621
-0.000321845
1.49009
0.603629
0.9449
-3.67414e-06
0.699539
0.000563805
1.02624
1.51519
0.146884
0.0031469
0.917909
0.000831504
1.41601
1.13065
1.62752
0.810674
0.995074
1.54145
5.52143e-05
1.69312
0.397043
2.03076
1.25577
0.000621002
-0.000137284
1.71163
8.53363e-09
2.02833e-07
0.649927
0.00399342
0.1285
1.39459
1.55372
1.70039
-2.0392e-10
-0.000225091
0.453222
0.986452
-4.06682e-06
2.8517e-07
1.58166
1.2572
0.75159
0.170128
1.14187
4.72047e-09
-2.40881e-09
0.0619028
1.45964
1.47416e-08
0.94364
1.58663
0.533589
0.32566
1.53077
1.59001
1.05236
0.898357
0.000687582
3.35541e-05
0.826251
0.0348511
7.45579e-05
1.25693
0.000527688
1.25748
1.64627
0.213329
1.18183
1.64532
1.79324e-10
0.0568455
1.2956
-0.000524094
1.40691
0.50115
0.0464546
0.0246847
0.720763
8.84404e-10
1.66637
1.52195
0.00131261
0.541341
1.56331
1.56612
1.00371
0.633069
0.499622
0.136123
0.415949
0.0925092
1.46083
1.27988e-09
0.188426
1.01434
0.31291
0.691418
2.11588
1.29421
0.677892
4.53612e-07
0.946248
1.88802e-05
-3.94724e-09
-5.03158e-05
0.738178
0.326929
2.28106e-09
-3.90692e-11
0.00599219
0.853345
0.00411716
0.0292951
1.49238
1.07448
-4.29727e-11
0.823608
1.76475
-4.38139e-12
0.0755031
0.23527
0.457676
1.23295
0.80959
1.52059
3.08069
0.506237
1.33812
0.125661
0.990232
0.0759146
1.43758
0.124049
0.000607501
0.925431
0.218279
0.318392
1.52659
0.506139
1.05737
0.973054
1.04139
1.29942
1.2233
0.198162
0.87418
0.978885
1.07108e-08
0.674497
-2.64648e-08
0.143967
1.47361
0.110151
0.966696
1.69098e-07
0.00926484
0.00267057
1.50069e-06
0.000962984
0.000211078
1.70242
0.600777
-0.0817638
0.93658
1.05754
-0.000182036
0.472736
0.75802
1.42287
1.42426
1.62918
1.11559
1.23942
0.793808
1.04057
1.60379
1.51853
1.88871
0.243623
1.40803
1.31274
-2.84723e-09
1.45833
0.974652
4.7346e-07
0.113339
1.01502
0.55024
0.272604
6.52628e-05
1.11822
5.33889e-08
-1.43711e-05
-4.43594e-09
0.691251
0.969212
3.32775e-05
0.949591
0.0819935
1.59525
1.54875
0.6232
1.55447
1.48277
1.79266
1.24851
4.99045e-09
0.447286
0.357007
0.503749
1.09216
-2.7213e-09
0.411726
-0.000761011
0.682417
1.02943
0.841041
1.08651
-7.14172e-05
-5.08673e-10
0.657892
0.554652
-5.88986e-07
0.0460831
1.17127
1.39538
1.50667
7.62275e-11
0.953089
1.5477
0.00990988
0.105991
1.32055
0.651877
0.242789
1.15541e-06
-1.34293e-11
1.21108e-05
-1.57061e-07
-6.28766e-06
0.942431
0.00463142
0.000195681
1.45318
6.10039e-09
-3.68807e-07
1.02989
0.765166
3.25992e-10
0.908624
0.959269
-9.16703e-09
1.1328e-06
0.336179
1.67842
1.88053
0.0434996
1.1388e-07
1.0763
0.289074
0.914867
0.0752581
1.30223
-6.8621e-06
-2.93992e-06
-4.69677e-08
2.93728e-08
9.50869e-05
0.163389
1.22313
2.34861e-08
0.47899
1.36331
6.8844e-08
1.22404
0.000932232
-2.9655e-07
0.281953
-2.19653e-06
1.13065
0.00054818
1.46381
5.38107e-06
0.00357551
3.71277e-05
1.48386e-09
-2.21828e-10
-8.02556e-05
1.68261
3.2549e-07
0.223052
0.163598
1.3278e-07
0.0235869
0.976166
1.5629e-10
0.00357943
1.62173
1.44315
0.854761
0.47268
0.380128
0.793817
0.138077
-1.72887e-10
1.76939
0.967593
1.74707
0.00100051
0.890838
1.12591
1.43742
1.01772
0.90456
3.47491e-07
0.525158
-5.1405e-07
0.524633
0.93873
0.116473
1.70682
-1.35995e-07
0.00197819
0.125732
2.80165e-12
0.968218
2.00663e-08
1.35326
-0.0713978
1.78761
1.58654
-3.63181e-08
2.00166
1.48956
0.960655
-8.29882e-10
0.89435
1.04712
1.57312
1.26558
1.41786
1.59166
1.69331
1.73125
1.18481
1.49247
-1.14318e-07
1.29627
1.0197
1.01901
0.63271
0.501432
0.000139637
0.000173991
1.04657e-08
1.02815
1.93955e-09
0.94532
1.45378
0.0121379
0.00195371
0.297296
0.49304
-0.102808
1.43564
0.857145
1.77033e-08
1.05245
1.1987
-0.00224033
0.00500959
1.40747
1.30109
1.16438
0.0375433
-8.71707e-09
1.04424
1.01584
1.86122
0.989881
0.91448
1.36551
0.000243226
1.01872
0.77014
0.408526
0.0247217
0.954969
1.35968
-1.10477e-08
0.000855675
0.0164797
0.823759
1.86593
-4.38806e-06
1.48157
1.81539
0.294455
1.03327
0.351857
0.710711
1.00246
0.000106362
-4.07364e-08
1.51366
5.6091e-07
1.43649
-2.72338e-06
0.714387
1.17195e-11
1.45834
0.214837
7.58733e-13
1.48676
0.931424
1.37212e-08
0.0945151
1.06744
1.36765
0.916114
1.09874
4.39384e-07
0.862009
0.892554
0.00291082
1.54117
0.439776
1.12897
1.09006e-11
0.240699
0.993074
0.310164
0.858983
-0.0233872
0.512945
-2.15447e-07
-6.53622e-05
0.950308
0.979427
1.36949
1.5718
-4.62491e-07
1.10962
1.39881
-2.18674e-05
0.323706
4.82201e-09
0.71838
0.000810953
1.02537
1.38963
0.947115
1.26818
1.54811
0.408343
-0.000141176
1.28697
0.904585
1.01268
1.06591e-07
1.11767
1.06375
1.37234
2.8673e-11
-0.000197496
0.236887
0.174441
0.955743
0.841549
-3.30934e-08
0.00803375
1.57028
0.0736206
1.1131
1.03922
0.995237
1.54628
0.166862
1.48629
1.01509
0.00461939
0.00399501
-7.26887e-08
0.878713
0.406922
0.937735
0.0142275
0.00033154
1.49629
-2.42725e-11
1.40143
1.37142e-06
0.187775
0.634282
1.35033
1.47404
1.51968
1.3235
1.34353
1.60614
1.11409
0.984715
0.000291046
-0.120362
1.2758
1.073
0.00165208
1.54511
-1.63052e-11
1.01597
0.938577
1.56178e-05
1.47203
-0.127247
8.19301e-05
0.422767
1.52942
1.07355
-0.141102
0.909342
1.73708
1.60136
0.0380433
0.100421
2.49159e-06
0.0673387
1.17799
1.6047
9.23725e-09
1.33929
0.908276
-1.16537e-06
0.9857
1.59544
0.659128
0.868549
1.05031
3.48084e-05
0.909818
0.12858
-0.105192
0.823061
-2.18336e-05
1.72677
0.693851
1.60186
1.51824
0.207103
1.52539
1.76075
-1.09199e-06
-0.133678
1.1912
0.971897
1.48545
1.47031
1.09532
4.62846e-05
0.988816
3.97226e-11
1.00615
1.68348
1.24407
0.096299
0.145998
0.0713502
-1.73059e-08
0.160321
1.43717
1.86238e-10
0.587871
-1.84192e-08
-1.1471e-06
1.80741
-3.33808e-06
1.55727
0.123729
0.769262
0.430798
0.673729
1.55233
1.04296
0.758691
1.03901
0.00561476
1.14215
-4.62911e-07
-0.00138879
3.69331e-06
1.39243
0.0275992
0.0336494
2.54746e-10
0.0957444
-7.72165e-09
1.08014
0.156219
-7.08512e-08
1.08996
8.50448e-09
1.32575
1.02346
1.49797
0.565641
2.0708e-08
0.6142
1.36608
0.152606
1.45789
0.0075892
0.00374005
0.555645
0.370986
0.731133
1.30388
-6.13432e-05
0.1223
1.02197
4.46829e-05
0.0296049
0.618979
1.58187
0.993182
1.30505
0.157664
1.11647
0.905013
0.889692
1.43368
0.736254
0.000837039
1.36753
1.55185
-1.66316e-07
0.731473
0.490698
0.960598
1.41092
0.735944
0.777115
1.01112
1.12037
1.709
0.75471
1.14439
0.39157
0.410779
1.68021
0.0896623
1.53067
0.107503
0.128664
-1.26869e-05
0.631401
0.28303
1.38437
0.52228
0.212876
0.040841
0.0419609
1.11026
0.784691
-4.1372e-06
0.293063
-4.47197e-08
-0.0253272
0.609188
0.000232465
0.847514
1.15488
0.252978
2.95341e-10
1.39805
1.03494
1.60321
1.22986
0.206187
1.05395
0.683518
1.52612
1.15127
1.37064
0.0115663
0.835799
0.968248
1.52578
0.728531
1.78339
0.000641934
0.287551
0.435961
1.50823
2.54306e-08
0.469377
0.772433
0.786571
1.70105
0.455649
1.37244
1.14515
1.51942
1.20994
1.46343
1.41529
1.63852
1.645
1.23004
1.09148
0.54283
1.43562
0.97181
0.0817743
1.48141
0.287059
0.970903
-8.02296e-07
0.5053
0.000126395
1.39877
0.849074
0.486885
0.391488
0.975916
0.611465
1.82299
1.89272
0.467203
2.62008
2.73718e-06
-1.70958e-06
1.36542
0.650601
0.0562649
0.350917
0.997971
1.37173e-05
1.9827
0.468635
2.03163e-05
1.08529e-10
1.10106
0.861691
1.10026
0.395989
1.40115
0.904275
0.941978
1.07771
0.93054
-1.46116e-09
1.41317
1.24092
0.730751
0.38611
0.813859
0.137808
1.16436
0.067232
2.20491e-13
0.375696
0.966661
-3.80408e-09
5.6962e-09
1.67774
1.09043
1.02795
0.0181263
1.34503
0.919131
-3.52186e-05
0.749438
0.212541
1.04203e-08
6.21962e-06
1.33953
0.133017
0.120829
0.912479
1.148
0.932244
1.70989
9.91118e-09
3.15676e-08
-0.000161682
0.671847
1.01033
0.291797
0.0162111
1.03474
0.000114804
0.0043216
0.481865
0.0915165
-0.0119195
0.785944
0.005644
0.724276
1.57112
0.050383
0.594676
1.02723
-1.50775e-05
1.0937
1.06738
1.15102
0.168083
0.0230116
1.13761
-0.00241381
1.66805
1.54371
0.165554
1.68652
0.0287878
1.55844
0.711327
0.704304
1.05566
0.917063
0.489867
0.878028
1.40134
-0.000120647
1.09867e-08
0.181294
-2.06927e-10
0.252891
-8.39207e-08
1.16894
0.574322
1.49259
0.0010816
1.09792
2.91496e-06
0.00178863
0.000679379
0.0239691
0.01291
1.18567
0.617877
-1.20308e-05
2.03265
-7.84694e-06
0.00144421
0.665602
0.816431
0.000498715
1.41474
1.51756
0.937742
-4.70758e-11
1.24999
1.54458
8.26003e-06
0.217508
0.490272
1.4774
1.46405
0.216851
0.0736646
0.00686665
1.03335
0.596437
1.07289
1.56404
0.969984
1.48114
0.352025
1.20637
1.5721
0.368239
0.0537655
0.208473
0.906443
0.000681127
1.47956
0.647682
1.20388
1.27514
0.463196
2.13111
0.876649
0.0395709
1.01809
0.231569
-5.70734e-07
0.151754
1.53118
1.68975
1.80577
0.236052
0.0934724
0.910589
0.0554779
0.118645
1.70331e-05
0.370375
0.58563
0.00161108
1.12493
1.55469
0.309252
1.58988
0.928926
0.966747
0.237552
0.106113
0.829163
1.72409
-2.00338e-07
0.950946
0.887765
9.98909e-06
0.000234904
0.00218541
-5.34511e-11
0.00309605
0.171722
-0.0345661
1.00861
-4.27201e-11
1.51724e-05
0.869611
-9.25089e-12
0.180616
0.0274848
1.29673
3.20894e-06
0.366133
1.47934
0.00596673
0.889293
1.70524
0.678573
1.45551e-05
-0.00878324
0.944086
-0.0206013
0.192695
-1.18242e-06
1.67429e-06
-8.9565e-10
1.0749
0.896613
1.72957
0.083966
0.995308
0.40453
1.41102e-08
1.53233
1.52808
0.917099
0.978605
2.41484e-09
0.00122858
-4.42099e-07
9.56112e-10
1.05782e-05
3.2614e-05
1.23653
1.74227