/*--------------------------------*- C++ -*----------------------------------*\
| =========                 |                                                 |
| \\      /  F ield         | OpenFOAM: The Open Source CFD Toolbox           |
|  \\    /   O peration     | Version:  4.1                                   |
|   \\  /    A nd           | Web:      www.OpenFOAM.org                      |
|    \\/     M anipulation  |                                                 |
\*---------------------------------------------------------------------------*/
FoamFile
{
    version     2.0;
    format      ascii;
    class       volScalarField;
    location    "0.2";
    object      p;
}
// * * * * * * * * * * * * * * * * * * * * * * * * * * * * * * * * * * * * * //

dimensions      [0 2 -2 0 0 0 0];

internalField   nonuniform List<scalar> 
500
(
1.57474e-08
7.92701e-08
3.11985
3.11985
0.0146943
0.0146944
-2.29155
-2.29155
-0.0467659
-0.0467659
2.59748
2.59748
0.016602
0.016602
-2.82675
-2.82675
-0.0445728
-0.0445728
-0.00526318
-0.00526317
-0.0993449
-0.0993449
-0.167255
-0.167255
0.00440624
0.00440619
0.0538859
0.0538859
-0.0295686
-0.0295686
-0.0756404
-0.0756404
-0.054801
-0.054801
-0.0923281
-0.0923281
-0.104083
-0.104083
-0.109888
-0.109888
0.00389496
0.00389495
0.0746521
0.0746521
0.00107802
0.00107798
-0.175519
-0.175519
-0.0366275
-0.0366276
-0.0258532
-0.0258533
0.0473462
0.0473462
-0.209979
-0.209979
0.0495567
0.0495567
-0.0452555
-0.0452555
0.00488617
0.00488617
-0.0751957
-0.0751957
0.00883319
0.00883313
-0.0489946
-0.0489946
-0.00290055
-0.00290057
-0.0182689
-0.0182689
-0.0514569
-0.0514569
-0.0306831
-0.0306831
-0.24313
-0.24313
0.0276356
0.0276356
-0.0358132
-0.0358132
0.0104127
0.0104127
0.629024
0.629024
0.0285223
0.0285222
-0.455351
-0.455351
-0.0356094
-0.0356093
-0.611483
-0.611483
0.38988
0.38988
-0.0559085
-0.0559085
0.00247783
0.00247775
-0.0679224
-0.0679223
-0.323233
-0.323233
0.036524
0.0365239
0.234911
0.234911
-0.0465771
-0.0465771
-0.330186
-0.330186
0.0286151
0.028615
0.182844
0.182844
-0.0960379
-0.0960379
-0.126129
-0.126129
-0.00455589
-0.0045559
0.0573728
0.0573728
-0.442362
-0.442362
-0.0488896
-0.0488896
0.326658
0.326659
0.0103605
0.0103604
-0.171449
-0.171449
-0.0206423
-0.0206423
-0.0189886
-0.0189886
0.101744
0.101744
-0.0519976
-0.0519976
-0.198288
-0.198288
0.0583865
0.0583865
0.0491289
0.0491289
-0.482121
-0.482121
-0.0544105
-0.0544105
0.58679
0.58679
0.0205873
0.0205872
-0.24965
-0.24965
-0.0454201
-0.0454201
0.0417841
0.0417841
0.0266671
0.0266671
-0.122129
-0.122129
-0.00637282
-0.00637279
-0.120164
-0.120164
0.0336626
0.0336627
-0.104179
-0.104179
-0.0833091
-0.083309
-0.00467576
-0.0046758
0.0983209
0.098321
-0.0862691
-0.0862691
-0.162986
-0.162986
-0.0171233
-0.0171233
0.124652
0.124652
0.819878
0.819878
0.0366231
0.0366231
-0.585987
-0.585987
-0.0259254
-0.0259254
-0.781742
-0.781742
0.569421
0.569421
-0.0641645
-0.0641646
-0.00550788
-0.00550787
-0.0403404
-0.0403404
-0.471489
-0.471489
0.0224889
0.0224888
0.381916
0.381916
-0.616123
-0.616123
-0.05069
-0.05069
0.404131
0.404131
0.0205324
0.0205323
1.35058
1.35058
0.0274468
0.0274469
-0.844153
-0.844153
-0.0341824
-0.0341824
0.938161
0.938161
-1.22616
-1.22616
0.00372801
0.00372804
-0.0565932
-0.0565932
-0.106999
-0.106999
-0.137584
-0.137584
-0.0116812
-0.0116811
0.115947
0.115947
1.60844
1.60844
0.0257781
0.0257781
-1.13662
-1.13662
-0.0357543
-0.0357543
1.27256
1.27256
-1.47609
-1.47609
0.00544797
0.00544801
-0.0554546
-0.0554546
-0.475277
-0.475277
-0.0471627
-0.0471626
0.435894
0.435894
0.0184277
0.0184277
-0.040396
-0.0403959
-0.160948
-0.160948
0.0586438
0.0586438
0.0257292
0.0257292
-0.211771
-0.211771
-0.0312725
-0.0312725
-0.0327176
-0.0327176
0.120894
0.120894
-0.1953
-0.1953
-0.0280625
-0.0280625
-0.137065
-0.137065
0.0520112
0.0520112
-0.0546049
-0.0546049
-0.365005
-0.365005
0.0175855
0.0175855
0.150922
0.150922
-0.0543391
-0.054339
-0.40776
-0.40776
-0.001919
-0.00191908
0.120931
0.120931
-0.264925
-0.264925
-0.0296763
-0.0296763
-0.317683
-0.317683
-0.0442424
-0.0442423
0.0290789
0.0290788
0.396124
0.396124
0.319666
0.319666
0.0295377
0.0295376
-0.154186
-0.154186
-0.0358385
-0.0358385
-0.0336571
-0.033657
0.0548409
0.0548409
-0.130207
-0.130207
-0.0414451
-0.0414451
-0.112882
-0.112882
-0.0213622
-0.0213622
-0.584838
-0.584838
-0.0428597
-0.0428597
0.688368
0.688368
0.0198613
0.0198613
-0.703797
-0.703797
-0.0483899
-0.0483899
0.556581
0.556581
0.0104913
0.0104913
-0.220047
-0.220047
-0.0904399
-0.0904398
0.103552
0.103552
0.00922238
0.00922237
-0.260069
-0.260069
-0.0502382
-0.0502382
0.154772
0.154772
0.0212646
0.0212645
-0.384023
-0.384023
-0.0640118
-0.0640117
0.296321
0.296321
0.0271961
0.0271961
-0.194102
-0.194102
0.0258536
0.0258536
-0.0182467
-0.0182467
0.0299887
0.0299887
-0.268958
-0.268958
-0.055658
-0.055658
0.063701
0.0637011
0.01151
0.0115099
-0.382104
-0.382104
-0.0471009
-0.0471008
0.174481
0.174481
0.0207309
0.020731
-0.09983
-0.09983
-0.264591
-0.264591
-0.00101225
-0.00101227
0.207349
0.207349
-0.264099
-0.264099
-0.0371538
-0.0371538
0.0525522
0.0525522
0.0391556
0.0391556
-0.770186
-0.770186
-0.0514716
-0.0514716
0.937642
0.937642
0.0139951
0.0139951
-0.9132
-0.9132
0.795311
0.795311
-0.0441298
-0.0441298
0.0203557
0.0203557
-0.282476
-0.282476
-0.0359723
-0.0359723
0.0926022
0.0926021
0.0316117
0.0316117
-0.0780333
-0.0780334
-0.118373
-0.118373
-0.205033
-0.205033
-0.0458445
-0.0458445
0.0176945
0.0176945
0.176187
0.176187
0.240437
0.240437
-0.000140531
-0.000140549
-0.198056
-0.198056
-0.0763814
-0.0763814
-0.224975
-0.224975
-0.0280195
-0.0280195
0.0279405
0.0279405
0.2559
0.2559
-0.289356
-0.289356
0.0518274
0.0518275
-0.0498203
-0.0498202
-0.00229244
-0.00229244
-0.0958997
-0.0958998
-0.150516
-0.150516
0.00120546
0.00120547
0.182324
0.182324
-0.340785
-0.340785
-0.0498116
-0.0498115
0.198989
0.198989
0.0358667
0.0358667
-0.0398075
-0.0398074
-0.0245848
-0.0245848
)
;

boundaryField
{
    frontAndBack
    {
        type            empty;
    }
    movingWall
    {
        type            zeroGradient;
    }
    fixedWalls
    {
        type            zeroGradient;
    }
}


// ************************************************************************* //
