/*--------------------------------*- C++ -*----------------------------------*\
| =========                 |                                                 |
| \\      /  F ield         | OpenFOAM: The Open Source CFD Toolbox           |
|  \\    /   O peration     | Version:  4.1                                   |
|   \\  /    A nd           | Web:      www.OpenFOAM.org                      |
|    \\/     M anipulation  |                                                 |
\*---------------------------------------------------------------------------*/
FoamFile
{
    version     2.0;
    format      ascii;
    class       surfaceScalarField;
    location    "0.2";
    object      phi;
}
// * * * * * * * * * * * * * * * * * * * * * * * * * * * * * * * * * * * * * //

dimensions      [0 3 -1 0 0 0 0];

internalField   nonuniform List<scalar> 
960
(
-2.71278e-13
-4.65536e-06
-4.33082e-06
8.98618e-06
-4.65536e-06
-4.33082e-06
8.98618e-06
-2.49897e-13
-1.65843e-05
1.65843e-05
-1.65843e-05
1.65843e-05
-1.19934e-13
-8.96852e-08
8.96855e-08
-8.96851e-08
8.96857e-08
-5.93558e-14
-1.55388e-05
1.55388e-05
-1.55388e-05
1.55388e-05
-5.4825e-14
-1.04066e-07
1.04066e-07
-1.04066e-07
1.04066e-07
-2.52948e-14
-1.65843e-05
-1.65843e-05
-1.87223e-14
-8.9685e-08
-8.96851e-08
2.05769e-14
-1.55388e-05
-1.55388e-05
-4.44717e-14
-1.04066e-07
-1.04066e-07
-5.06348e-14
5.55012e-06
-1.02055e-05
5.55012e-06
-1.02055e-05
-1.70141e-13
1.07542e-05
-3.37879e-06
-7.37538e-06
1.07542e-05
-3.37879e-06
-7.37537e-06
2.45769e-14
7.14722e-07
-4.08877e-06
3.37405e-06
7.14722e-07
-4.08877e-06
3.37405e-06
2.32084e-13
4.19099e-06
2.92186e-06
-7.11284e-06
4.19099e-06
2.92186e-06
-7.11284e-06
-1.20417e-13
-5.56396e-06
9.31619e-06
-3.75223e-06
-5.56397e-06
9.31619e-06
-3.75223e-06
1.87956e-13
1.02704e-05
-5.37011e-06
-4.90029e-06
1.02704e-05
-5.37011e-06
-4.90029e-06
-1.65874e-13
6.27246e-06
2.35887e-06
-8.63133e-06
6.27246e-06
2.35887e-06
-8.63133e-06
1.14682e-13
2.07444e-06
8.19596e-06
2.07445e-06
8.19596e-06
2.40729e-13
-1.55549e-06
7.82795e-06
-1.55549e-06
7.82795e-06
-1.09032e-14
2.80828e-06
7.94589e-06
2.80828e-06
7.94589e-06
-1.09589e-14
2.48277e-06
-1.76805e-06
2.48277e-06
-1.76805e-06
1.48894e-14
-1.57901e-06
5.77e-06
-1.57901e-06
5.77e-06
-1.49681e-13
-1.23797e-05
6.81576e-06
-1.23797e-05
6.81576e-06
1.63026e-13
-4.57931e-06
1.01294e-05
-4.57932e-06
1.01294e-05
6.21397e-14
5.17695e-06
-5.17695e-06
5.17694e-06
-5.17694e-06
1.71157e-13
3.91782e-05
-3.91782e-05
3.91782e-05
-3.91782e-05
3.32269e-13
1.74237e-06
-1.74237e-06
1.74237e-06
-1.74237e-06
1.4617e-13
3.84559e-06
-3.84559e-06
3.84559e-06
-3.84559e-06
-1.35498e-13
9.7072e-07
4.20622e-06
9.7072e-07
4.20622e-06
-7.12871e-15
1.18213e-05
2.73569e-05
1.18213e-05
2.73569e-05
2.49052e-14
1.03731e-06
7.05058e-07
1.03731e-06
7.05058e-07
-2.9038e-14
2.77287e-06
1.07272e-06
2.77287e-06
1.07272e-06
7.47217e-15
-5.64426e-06
-5.64426e-06
2.01983e-13
-8.8929e-07
-8.89292e-07
-3.60223e-14
-3.37018e-06
5.44462e-06
-3.37018e-06
5.44462e-06
6.36988e-14
-6.76029e-06
2.18098e-06
-6.76029e-06
2.18097e-06
1.08065e-13
5.98853e-06
4.14091e-06
5.98853e-06
4.14091e-06
9.45831e-14
6.9949e-06
-4.63603e-06
6.9949e-06
-4.63603e-06
2.94577e-14
3.12095e-06
-8.49106e-06
3.12095e-06
-8.49106e-06
1.35817e-13
-8.26736e-06
9.23808e-06
-8.26736e-06
9.23808e-06
-7.12002e-14
-4.08413e-06
1.59054e-05
-4.08413e-06
1.59054e-05
-5.08478e-14
-8.75067e-07
1.91238e-06
-8.75067e-07
1.91238e-06
1.29769e-13
-3.9686e-08
2.81256e-06
-3.96859e-08
2.81256e-06
-4.49994e-13
-1.07586e-05
1.07586e-05
-1.07586e-05
1.07586e-05
2.73323e-13
-6.99533e-07
6.99533e-07
-6.99533e-07
6.99533e-07
2.28291e-13
-3.05625e-05
3.05625e-05
-3.05625e-05
3.05625e-05
-2.59221e-13
-8.60686e-07
8.60686e-07
-8.60685e-07
8.60685e-07
3.17315e-13
9.79155e-06
-9.79155e-06
9.79155e-06
-9.79155e-06
-2.7047e-13
3.18818e-05
-3.18818e-05
3.18818e-05
-3.18818e-05
-1.78736e-13
7.26845e-07
-7.26845e-07
7.26845e-07
-7.26845e-07
4.14833e-13
8.37278e-07
-8.37278e-07
8.37277e-07
-8.37277e-07
-3.93736e-13
-7.0778e-06
4.21067e-07
6.65673e-06
-7.0778e-06
4.21067e-07
6.65673e-06
5.61767e-13
-9.89589e-06
4.42162e-06
5.47427e-06
-9.89589e-06
4.42162e-06
5.47427e-06
5.9674e-13
-4.61481e-06
-3.81163e-07
4.99597e-06
-4.61481e-06
-3.81163e-07
4.99597e-06
-5.39479e-13
1.80313e-06
-1.3053e-05
1.12499e-05
1.80313e-06
-1.3053e-05
1.12499e-05
-3.92776e-13
-3.72014e-06
-3.35766e-06
-3.72014e-06
-3.35766e-06
-6.30783e-14
-1.30058e-05
3.10995e-06
-1.30058e-05
3.10995e-06
8.47718e-14
-5.24895e-07
-4.08992e-06
-5.24894e-07
-4.08992e-06
-3.323e-13
1.41438e-05
-1.23407e-05
1.41438e-05
-1.23407e-05
-2.13669e-13
-1.98522e-06
-3.19173e-06
-1.98522e-06
-3.19173e-06
-3.23145e-14
-3.14239e-05
-7.75431e-06
-3.14239e-05
-7.75431e-06
6.32122e-14
-1.04772e-06
-6.94653e-07
-1.04772e-06
-6.94653e-07
-2.88473e-13
-4.13559e-06
2.90004e-07
-4.13559e-06
2.90005e-07
2.16632e-13
1.59713e-05
-3.65275e-06
-1.23185e-05
1.59713e-05
-3.65275e-06
-1.23185e-05
-4.49321e-13
2.25633e-06
-1.89059e-06
-3.65738e-07
2.25633e-06
-1.89059e-06
-3.65739e-07
-6.10736e-13
7.17461e-06
-1.13806e-05
4.20596e-06
7.17461e-06
-1.13806e-05
4.20596e-06
2.48516e-13
2.42308e-06
-3.04799e-06
6.24919e-07
2.42308e-06
-3.04799e-06
6.24919e-07
1.17462e-13
-6.32027e-06
-1.92645e-06
8.24672e-06
-6.32027e-06
-1.92645e-06
8.24672e-06
7.76257e-14
-3.85324e-06
-6.95591e-06
1.08091e-05
-3.85324e-06
-6.95591e-06
1.08091e-05
8.42164e-14
-2.21326e-06
-2.18062e-06
4.39387e-06
-2.21326e-06
-2.18062e-06
4.39387e-06
9.32905e-14
-8.27815e-07
-8.80755e-06
9.63537e-06
-8.27814e-07
-8.80755e-06
9.63537e-06
-2.06842e-14
4.77595e-06
-8.14613e-06
4.77595e-06
-8.14613e-06
6.00613e-14
1.38441e-05
-7.55486e-06
-6.28928e-06
1.38441e-05
-7.55486e-06
-6.28928e-06
2.13572e-13
1.57734e-06
-8.33763e-06
1.57734e-06
-8.33763e-06
-1.04016e-13
-9.44557e-06
3.90022e-06
5.54535e-06
-9.44557e-06
3.90022e-06
5.54535e-06
4.33341e-13
7.04622e-06
-1.23362e-05
5.28998e-06
7.04622e-06
-1.23362e-05
5.28998e-06
-4.34164e-13
2.67691e-06
-2.56165e-06
-1.15266e-07
2.67691e-06
-2.56165e-06
-1.15264e-07
-6.25798e-13
1.69052e-05
8.44494e-08
-1.69897e-05
1.69052e-05
8.44502e-08
-1.69897e-05
4.13204e-13
2.40092e-06
-2.17484e-06
-2.26072e-07
2.40092e-06
-2.17484e-06
-2.26073e-07
2.32802e-13
3.78931e-06
1.00548e-05
3.7893e-06
1.00548e-05
-1.3496e-13
5.65089e-06
-8.74938e-07
5.65089e-06
-8.74937e-07
-2.90546e-13
-1.32964e-06
-8.11593e-06
-1.32964e-06
-8.11593e-06
3.18837e-13
5.45676e-06
-3.87942e-06
5.45676e-06
-3.87942e-06
1.85476e-13
-1.98547e-06
-5.56939e-06
-1.98547e-06
-5.56939e-06
-1.01362e-13
-4.73111e-06
-4.73112e-06
1.23926e-13
5.84249e-06
5.84249e-06
-3.5833e-13
-9.06193e-06
-9.06193e-06
1.51991e-13
-3.14239e-05
-3.14239e-05
-3.69513e-13
-1.98522e-06
-1.98522e-06
1.32299e-13
-1.04772e-06
-1.04772e-06
-3.2694e-13
-4.13559e-06
-4.13559e-06
-1.40182e-13
-3.51199e-06
-3.51199e-06
2.73776e-14
-1.37047e-06
-1.37047e-06
6.5122e-15
-3.79227e-06
-3.79227e-06
-3.22925e-13
-1.32075e-05
-1.32075e-05
-4.3739e-14
-1.10516e-05
2.9301e-07
-1.10516e-05
2.93009e-07
-6.24148e-14
-2.28481e-07
-4.71052e-07
-2.28481e-07
-4.71052e-07
-6.45543e-14
-2.17961e-05
-8.76635e-06
-2.17961e-05
-8.76635e-06
-1.08982e-14
-2.64395e-07
-5.96291e-07
-2.64395e-07
-5.96291e-07
-6.63061e-14
9.82489e-06
-3.33346e-08
9.82489e-06
-3.33345e-08
1.1957e-13
2.28333e-05
9.04848e-06
2.28333e-05
9.04848e-06
1.14507e-13
2.49122e-07
4.77723e-07
2.49122e-07
4.77722e-07
-4.40933e-14
2.46704e-07
5.90573e-07
2.46704e-07
5.90573e-07
-9.40534e-14
3.09798e-06
3.09798e-06
2.20882e-13
1.14678e-05
1.14678e-05
2.77423e-13
2.01975e-06
2.01975e-06
-2.02268e-13
3.85219e-06
3.85219e-06
2.07236e-13
4.90361e-07
1.54809e-05
4.90361e-07
1.54809e-05
-2.74123e-14
2.00722e-06
2.49108e-07
2.00722e-06
2.49108e-07
-8.22384e-14
1.13081e-05
-4.13353e-06
1.13081e-05
-4.13353e-06
2.30307e-13
2.33475e-06
8.83282e-08
2.33475e-06
8.83277e-08
-1.0441e-13
-1.10516e-05
-1.10516e-05
-5.63328e-14
-2.28481e-07
-2.28481e-07
-2.64291e-15
-2.17961e-05
-2.17961e-05
-1.00411e-13
-2.64395e-07
-2.64395e-07
2.5361e-14
2.28333e-05
2.28333e-05
-7.00468e-14
9.82489e-06
9.82489e-06
-9.84027e-14
2.46704e-07
2.46704e-07
-2.41969e-15
2.49122e-07
2.49122e-07
1.96333e-14
-5.11818e-06
-5.11818e-06
-3.88701e-14
-1.47102e-05
-1.47102e-05
-1.17957e-13
-2.87527e-06
-2.87527e-06
1.24081e-14
-8.51755e-06
-8.51755e-06
7.64755e-15
5.53268e-06
5.53268e-06
8.49234e-14
-1.38795e-07
-1.38795e-07
1.74881e-13
-6.25733e-06
-6.25733e-06
-6.57364e-14
-1.60329e-07
-1.60329e-07
2.29837e-13
6.24904e-06
6.24904e-06
-1.58473e-13
-5.71391e-06
-5.71391e-06
-1.75514e-13
1.57019e-07
1.57019e-07
6.27236e-14
1.45056e-07
1.45056e-07
1.49013e-13
-1.18458e-05
-1.18458e-05
-3.45034e-13
-5.54427e-07
-5.54427e-07
-2.81593e-13
1.13926e-05
1.13926e-05
7.3416e-14
1.59904e-07
1.59904e-07
-3.55766e-14
-4.13604e-06
-4.01009e-06
-4.13604e-06
-4.01009e-06
1.96516e-13
3.07435e-06
-9.36363e-06
3.07435e-06
-9.36363e-06
1.93392e-13
-9.22692e-06
-9.22692e-06
-4.2043e-14
-9.89096e-08
-9.89091e-08
1.14213e-13
9.01772e-06
-7.70997e-07
9.01772e-06
-7.70997e-07
9.54435e-14
2.67587e-06
1.718e-06
2.67587e-06
1.718e-06
1.66981e-13
8.54978e-06
2.25936e-06
8.54978e-06
2.25936e-06
1.29034e-13
4.02232e-06
5.61304e-06
4.02232e-06
5.61304e-06
-1.96945e-13
7.50355e-07
7.50355e-07
5.06309e-14
1.80081e-06
1.80081e-06
8.46004e-14
4.46565e-06
4.46565e-06
-1.45451e-13
3.98264e-06
3.98264e-06
-3.41031e-13
2.17878e-08
2.17876e-08
2.8222e-13
5.58533e-06
5.58533e-06
2.48905e-13
-2.35438e-07
-2.35437e-07
-3.8752e-13
4.52487e-06
4.52487e-06
-5.62432e-13
-7.05057e-07
-7.05057e-07
4.64348e-13
-4.20622e-06
-4.20622e-06
3.79103e-13
-1.07272e-06
-1.07272e-06
-4.84718e-13
-2.73569e-05
-2.73569e-05
2.94875e-13
5.3298e-06
2.52327e-05
5.3298e-06
2.52327e-05
-1.7222e-13
-3.87147e-08
8.994e-07
-3.87152e-08
8.994e-07
1.35206e-13
1.67976e-05
1.67976e-05
-2.2944e-13
3.05926e-06
3.05926e-06
2.59555e-13
9.03963e-08
6.09136e-07
9.03965e-08
6.09136e-07
-1.95641e-13
6.57721e-06
4.18136e-06
6.57721e-06
4.18136e-06
-1.75979e-13
1.04294e-05
1.04294e-05
1.61234e-13
2.11015e-06
2.11015e-06
2.33427e-13
1.10202e-05
1.10202e-05
6.03043e-14
-1.86696e-06
-1.86696e-06
-2.38409e-13
1.63396e-06
1.63396e-06
2.79793e-14
-2.41117e-06
-2.41117e-06
-1.29125e-13
-4.81717e-06
-4.54646e-06
-4.81717e-06
-4.54646e-06
-1.01826e-13
-8.91038e-06
-8.91038e-06
-3.5205e-13
-1.09395e-13
1.7222e-14
-3.47637e-06
-3.47637e-06
-7.32118e-14
-7.11557e-07
-7.11556e-07
-8.10582e-14
-1.66967e-05
-1.66967e-05
-1.09904e-14
-6.97125e-07
-6.97125e-07
9.81174e-14
1.54476e-05
1.54476e-05
-6.33901e-14
7.2683e-07
7.2683e-07
-1.27819e-16
4.91496e-06
4.91496e-06
6.35644e-14
6.78901e-07
6.789e-07
-6.27771e-14
9.21654e-06
9.21654e-06
-2.14452e-13
-1.93075e-06
-1.93075e-06
-4.80412e-13
-1.28142e-05
-1.28142e-05
3.0827e-14
-4.93187e-06
-4.93187e-06
3.29383e-14
-2.29614e-13
-4.31164e-13
1.30694e-13
1.38479e-13
-8.73588e-06
-8.73588e-06
-2.56882e-13
-3.91209e-06
-3.91208e-06
-1.17192e-13
-9.48086e-07
-9.48085e-07
2.87764e-14
-3.93001e-06
-3.93001e-06
-2.31696e-14
1.02492e-05
1.02492e-05
1.19617e-13
3.92403e-07
3.92403e-07
3.91377e-14
3.35195e-06
3.35195e-06
-4.02873e-14
3.20188e-06
3.20188e-06
1.65708e-13
-2.18494e-07
1.02733e-05
-2.18494e-07
1.02733e-05
-1.27539e-13
-2.90396e-06
2.02902e-06
-2.90396e-06
2.02902e-06
-1.12081e-13
-3.35014e-06
-4.76579e-06
-3.35014e-06
-4.76579e-06
1.47477e-13
-4.88989e-06
1.01047e-06
-4.88989e-06
1.01047e-06
-4.83267e-14
-1.07811e-05
-1.53745e-06
-1.07811e-05
-1.53744e-06
-7.40524e-14
-2.2488e-06
1.88306e-06
-2.2488e-06
1.88306e-06
-4.80542e-14
-1.50791e-06
5.71387e-06
-1.50791e-06
5.71387e-06
-5.10423e-14
-2.29462e-06
2.91954e-06
-2.29462e-06
2.91954e-06
1.74631e-13
3.14474e-06
3.14474e-06
6.8662e-14
4.10381e-06
4.10381e-06
8.44522e-14
1.2037e-06
1.2037e-06
3.72506e-14
-1.95762e-06
-1.95762e-06
1.06886e-14
1.00307e-05
1.00307e-05
-3.74427e-15
4.47994e-07
4.47995e-07
2.62235e-14
-2.95774e-06
-2.95774e-06
5.75803e-15
-1.68801e-06
-1.68801e-06
9.42148e-14
-9.7337e-06
-9.7337e-06
5.08576e-15
-8.71886e-07
-8.71886e-07
1.09274e-13
-1.1164e-05
-1.1164e-05
4.70625e-14
-8.3592e-07
-8.3592e-07
-4.55674e-14
2.74762e-13
7.15745e-14
-8.7774e-14
-8.24295e-14
-2.83154e-15
6.42513e-14
-7.75448e-14
1.10333e-13
1.01158e-05
1.01158e-05
3.32499e-13
1.30144e-13
-6.19122e-06
-2.52327e-05
-6.19122e-06
-2.52327e-05
-9.85862e-14
-1.08582e-06
-8.994e-07
-1.08582e-06
-8.994e-07
6.79054e-14
-4.38583e-07
-6.09136e-07
-4.38583e-07
-6.09136e-07
-8.61128e-14
4.57689e-08
-4.18136e-06
4.57693e-08
-4.18136e-06
2.11192e-14
1.04752e-05
1.04752e-05
5.77271e-14
1.67157e-06
1.67157e-06
7.92801e-14
1.06064e-05
1.06064e-05
7.50939e-15
1.97345e-06
1.97345e-06
5.89701e-14
-6.16739e-15
-2.96337e-14
6.2309e-14
3.25919e-14
-1.84208e-13
-2.70922e-13
-1.45462e-15
2.63921e-13
-8.9983e-15
-4.47506e-14
2.64258e-13
9.72297e-14
-9.93166e-14
-6.0796e-14
-4.82092e-15
-8.05624e-14
4.35015e-06
4.35015e-06
1.5045e-14
)
;

boundaryField
{
    frontAndBack
    {
        type            empty;
        value           nonuniform 0();
    }
    movingWall
    {
        type            calculated;
        value           uniform 0;
    }
    fixedWalls
    {
        type            calculated;
        value           uniform 0;
    }
}


// ************************************************************************* //
