/*--------------------------------*- C++ -*----------------------------------*\
| =========                 |                                                 |
| \\      /  F ield         | OpenFOAM: The Open Source CFD Toolbox           |
|  \\    /   O peration     | Version:  4.1                                   |
|   \\  /    A nd           | Web:      www.OpenFOAM.org                      |
|    \\/     M anipulation  |                                                 |
\*---------------------------------------------------------------------------*/
FoamFile
{
    version     2.0;
    format      ascii;
    class       volVectorField;
    location    "0.2";
    object      U;
}
// * * * * * * * * * * * * * * * * * * * * * * * * * * * * * * * * * * * * * //

dimensions      [0 1 -1 0 0 0 0];

internalField   nonuniform List<vector> 
500
(
(-0.195719 -0.0895522 -4.77097e-09)
(-0.195719 -0.0895522 4.77097e-09)
(0.12313 -0.171593 -0.29677)
(0.12313 -0.171593 0.29677)
(-0.000336224 -0.000729415 -0.00139534)
(-0.000336226 -0.000729413 0.00139534)
(0.368507 0.0545784 0.217954)
(0.368507 0.0545784 -0.217954)
(-0.000864857 0.000494034 0.00444077)
(-0.000864857 0.000494032 -0.00444077)
(0.38029 -0.0544489 -0.246215)
(0.38029 -0.0544489 0.246215)
(-0.000762265 -0.000329207 -0.00157645)
(-0.000762266 -0.000329208 0.00157645)
(0.097821 0.167965 0.267977)
(0.097821 0.167965 -0.267977)
(-0.000496496 0.000860677 0.00423242)
(-0.000496494 0.000860675 -0.00423242)
(-0.187222 -0.0998074 0.000555985)
(-0.187222 -0.0998074 -0.000555985)
(-0.135807 0.127953 0.010036)
(-0.135807 0.127952 -0.010036)
(-0.112151 0.0528718 0.0162055)
(-0.112151 0.0528718 -0.0162055)
(-0.140755 -0.0202887 -0.000459649)
(-0.140755 -0.0202886 0.000459649)
(-0.172449 -0.185656 -0.0052358)
(-0.172449 -0.185656 0.0052358)
(-0.178698 0.0419759 0.00343852)
(-0.178698 0.0419759 -0.00343852)
(-0.197748 -0.00886799 0.00875127)
(-0.197748 -0.00886798 -0.00875127)
(-0.17138 0.0755373 0.00606222)
(-0.17138 0.0755372 -0.00606222)
(-0.181537 0.0175424 0.010736)
(-0.181537 0.0175423 -0.010736)
(-0.121495 0.152357 0.0114993)
(-0.121495 0.152357 -0.0114993)
(-0.0466063 0.0353423 0.0109859)
(-0.0466063 0.0353423 -0.0109859)
(-0.125902 -0.012585 -0.000434353)
(-0.125902 -0.012585 0.000434353)
(-0.156881 -0.200245 -0.0074433)
(-0.156881 -0.200245 0.0074433)
(-0.173809 -0.0582711 -0.00010929)
(-0.173809 -0.058271 0.00010929)
(-0.0161946 0.0798074 0.0188115)
(-0.0161946 0.0798074 -0.0188115)
(0.778314 -0.000655944 0.00393541)
(0.778314 -0.00065594 -0.00393541)
(-0.0250198 0.00139316 0.00277016)
(-0.0250198 0.00139316 -0.00277016)
(-0.0150979 -0.053999 -0.0050739)
(-0.0150979 -0.053999 0.0050739)
(-0.0292807 0.137026 0.0227105)
(-0.0292807 0.137026 -0.0227105)
(0.657834 -0.0179933 -0.00539994)
(0.657834 -0.0179933 0.00539994)
(-0.0340102 0.00320965 0.00489053)
(-0.0340102 0.00320965 -0.00489053)
(-0.0198505 -0.0625528 -0.000528221)
(-0.0198505 -0.0625528 0.000528221)
(-0.159792 0.00564312 0.00723313)
(-0.159792 0.00564315 -0.00723313)
(-0.180563 -0.125834 -0.000837226)
(-0.180563 -0.125834 0.000837226)
(-0.153464 0.0745399 0.00465433)
(-0.153464 0.0745399 -0.00465433)
(-0.160838 -0.0660116 0.000276314)
(-0.160838 -0.0660115 -0.000276314)
(-0.177355 -0.0316777 0.00165157)
(-0.177355 -0.0316777 -0.00165157)
(-0.200658 0.00151436 0.00523098)
(-0.200658 0.00151438 -0.00523098)
(-0.188512 0.0320976 0.00307614)
(-0.188512 0.0320976 -0.00307614)
(-0.0583307 0.208555 0.0240322)
(-0.0583308 0.208555 -0.0240322)
(0.423738 -0.0517151 -0.00273655)
(0.423738 -0.0517151 0.00273655)
(-0.0528055 0.00638601 0.00354386)
(-0.0528055 0.006386 -0.00354386)
(-0.0302613 -0.0879714 -0.0010307)
(-0.0302612 -0.0879713 0.0010307)
(-0.0258515 -0.187496 -0.0595189)
(-0.0258515 -0.187496 0.0595189)
(-0.00975409 -0.00358814 -0.00269999)
(-0.0097541 -0.00358814 0.00269999)
(0.702436 0.0404801 0.0430487)
(0.702436 0.0404801 -0.0430487)
(-0.00545961 0.0119581 0.00337085)
(-0.00545961 0.0119581 -0.00337085)
(-0.0217763 0.166478 0.0591734)
(-0.0217763 0.166478 -0.0591734)
(0.714005 -0.0311694 -0.0378188)
(0.714005 -0.0311694 0.0378188)
(-0.0103045 0.00350312 0.00540501)
(-0.0103045 0.00350312 -0.00540501)
(-0.00549135 -0.0117504 -0.000239546)
(-0.00549134 -0.0117504 0.000239546)
(-0.0702006 0.0911787 0.0080103)
(-0.0702006 0.0911786 -0.0080103)
(0.0235583 0.152221 0.0381258)
(0.0235583 0.152221 -0.0381258)
(-0.0841093 -0.0324801 -0.0043159)
(-0.0841093 -0.0324801 0.0043159)
(-0.145289 -0.290574 -0.0276845)
(-0.145289 -0.290574 0.0276845)
(-0.0853407 0.078008 0.00564421)
(-0.0853407 0.078008 -0.00564421)
(-0.0695691 0.19304 0.0403912)
(-0.0695691 0.19304 -0.0403912)
(-0.091125 -0.0445238 -0.00347253)
(-0.091125 -0.0445238 0.00347253)
(-0.147064 -0.263083 -0.0223507)
(-0.147064 -0.263083 0.0223507)
(-0.0218749 0.0922649 0.0117738)
(-0.0218749 0.0922649 -0.0117738)
(0.654924 0.00817611 0.0153587)
(0.654924 0.00817611 -0.0153587)
(-0.0381649 -0.000127778 0.00055879)
(-0.0381649 -0.000127786 -0.00055879)
(-0.0247382 -0.105935 -0.00702282)
(-0.0247382 -0.105935 0.00702282)
(-0.0912729 0.309805 0.0483829)
(-0.0912729 0.309805 -0.0483829)
(-0.0509937 0.0191665 0.00536777)
(-0.0509937 0.0191664 -0.00536777)
(0.168009 -0.126779 -0.0358815)
(0.168009 -0.126779 0.0358815)
(-0.0371508 -0.058827 -0.00113773)
(-0.0371508 -0.0588269 0.00113773)
(-0.0685585 0.171207 0.0169034)
(-0.0685585 0.171207 -0.0169034)
(0.230823 0.0240193 0.00202613)
(0.230823 0.0240193 -0.00202613)
(-0.0833842 0.000524859 0.00187095)
(-0.0833842 0.000524856 -0.00187095)
(-0.0833826 -0.181151 -0.00998677)
(-0.0833826 -0.181151 0.00998677)
(-0.134202 0.0492308 0.00539447)
(-0.134202 0.0492308 -0.00539447)
(-0.172369 0.180925 0.0211348)
(-0.172369 0.180925 -0.0211348)
(-0.144394 -0.100803 -0.00612343)
(-0.144394 -0.100803 0.00612343)
(-0.140979 -0.0977112 -0.00526662)
(-0.140979 -0.0977111 0.00526662)
(0.069754 0.216801 0.0551361)
(0.069754 0.216801 -0.0551361)
(-0.0306441 0.0386248 0.00622129)
(-0.0306441 0.0386247 -0.00622129)
(-0.110905 -0.350888 -0.0669615)
(-0.110905 -0.350888 0.0669615)
(-0.0371216 -0.023413 -0.00235395)
(-0.0371216 -0.023413 0.00235395)
(-0.153716 0.207607 0.0263613)
(-0.153716 0.207607 -0.0263613)
(-0.114775 0.0540696 0.00460639)
(-0.114775 0.0540696 -0.00460639)
(-0.124563 -0.140314 -0.00438791)
(-0.124563 -0.140314 0.00438791)
(-0.116818 -0.0908126 -0.00269808)
(-0.116818 -0.0908126 0.00269808)
(-0.186756 0.115625 0.0117761)
(-0.186756 0.115624 -0.0117761)
(-0.191554 -0.0896776 0.00062466)
(-0.191554 -0.0896776 -0.00062466)
(-0.178542 0.0993723 0.0118513)
(-0.178542 0.0993723 -0.0118513)
(-0.198434 -0.116158 -0.00333165)
(-0.198434 -0.116158 0.00333165)
(0.83394 0.00431027 0.00897432)
(0.83394 0.00431027 -0.00897432)
(-0.0080786 0.0379728 0.00723713)
(-0.0080786 0.0379728 -0.00723713)
(-0.0179292 -0.000937469 0.000406299)
(-0.0179292 -0.000937471 -0.000406299)
(-0.0118899 -0.066871 -0.00853598)
(-0.0118899 -0.066871 0.00853598)
(-0.0979432 0.146585 0.0085338)
(-0.0979432 0.146585 -0.0085338)
(0.0426432 0.0486107 0.015804)
(0.0426431 0.0486107 -0.015804)
(-0.105442 -0.0134615 0.00169868)
(-0.105442 -0.0134615 -0.00169868)
(-0.136227 -0.227116 -0.0120628)
(-0.136227 -0.227116 0.0120628)
(-0.0501909 -0.297941 -0.0777678)
(-0.0501909 -0.297941 0.0777678)
(-0.0109402 -0.00505186 -0.00347847)
(-0.0109402 -0.00505185 0.00347847)
(0.491837 0.0867571 0.0554108)
(0.491837 0.0867571 -0.0554108)
(-0.00694704 0.0127619 0.00246233)
(-0.00694704 0.0127619 -0.00246233)
(-0.0442186 0.264631 0.0738286)
(-0.0442186 0.264631 -0.0738286)
(0.52148 -0.0760467 -0.05398)
(0.52148 -0.0760467 0.05398)
(-0.0114816 0.00496152 0.00605179)
(-0.0114816 0.00496151 -0.00605179)
(-0.00681084 -0.012061 0.000519495)
(-0.00681083 -0.012061 -0.000519495)
(-0.0368794 0.0616061 0.00468097)
(-0.0368794 0.0616061 -0.00468097)
(0.152338 0.134027 0.0547932)
(0.152338 0.134027 -0.0547932)
(-0.0517288 -0.021629 -0.00261074)
(-0.0517289 -0.021629 0.00261074)
(-0.1081 -0.336434 -0.0443093)
(-0.1081 -0.336434 0.0443093)
(-0.102871 0.323628 0.068787)
(-0.102871 0.323628 -0.068787)
(-0.0370371 0.0219491 0.00564507)
(-0.0370371 0.021949 -0.00564507)
(0.0919379 -0.210114 -0.0450079)
(0.0919379 -0.210114 0.0450079)
(-0.0295806 -0.0375956 -0.00228657)
(-0.0295806 -0.0375956 0.00228657)
(-0.00614697 -0.227517 -0.109607)
(-0.00614697 -0.227517 0.109607)
(-0.00245389 -0.00168023 -0.00222557)
(-0.00245389 -0.00168023 0.00222557)
(0.63856 0.0388298 0.0685659)
(0.63856 0.0388298 -0.0685659)
(-0.00208417 0.00298195 0.00277174)
(-0.00208417 0.00298194 -0.00277174)
(0.657856 -0.0347893 -0.075918)
(0.657856 -0.0347893 0.075918)
(-0.0090041 0.20372 0.0993316)
(-0.00900409 0.20372 -0.0993316)
(-0.00203852 -0.00266604 -0.000302249)
(-0.00203853 -0.00266604 0.000302249)
(-0.0028093 0.00174532 0.00458831)
(-0.0028093 0.00174532 -0.00458831)
(-0.0390136 0.132632 0.0115617)
(-0.0390136 0.132632 -0.0115617)
(0.381726 0.035631 0.014733)
(0.381726 0.035631 -0.014733)
(-0.0656387 -0.000873643 0.00126332)
(-0.0656387 -0.000873642 -0.00126332)
(-0.058117 -0.178127 -0.0124423)
(-0.058117 -0.178127 0.0124423)
(-0.0125137 -0.401866 -0.168299)
(-0.0125137 -0.401866 0.168299)
(-0.00357793 -0.00232722 -0.00268961)
(-0.00357793 -0.00232722 0.00268961)
(0.268064 0.108726 0.118797)
(0.268064 0.108726 -0.118797)
(-0.00257392 0.00404465 0.0037305)
(-0.00257392 0.00404465 -0.0037305)
(0.299727 -0.108334 -0.132525)
(0.299727 -0.108334 0.132525)
(-0.0243274 0.371222 0.153594)
(-0.0243274 0.371222 -0.153594)
(-0.00247305 -0.00362982 -0.000568425)
(-0.00247304 -0.00362982 0.000568425)
(-0.0039965 0.00255506 0.00578593)
(-0.0039965 0.00255506 -0.00578593)
(-0.0608401 0.267148 0.0529537)
(-0.0608401 0.267148 -0.0529537)
(-0.0451686 0.0388352 0.00526416)
(-0.0451686 0.0388352 -0.00526416)
(-0.0649217 -0.275661 -0.0487277)
(-0.0649217 -0.275661 0.0487277)
(-0.0449286 -0.0386629 -0.00205705)
(-0.0449286 -0.0386629 0.00205705)
(-0.139853 0.029669 0.00437831)
(-0.139853 0.029669 -0.00437831)
(-0.162744 0.1762 0.016905)
(-0.162744 0.1762 -0.016905)
(-0.152181 -0.123759 -0.00619078)
(-0.152181 -0.123759 0.00619078)
(-0.124069 -0.0460543 -0.0027617)
(-0.124069 -0.0460543 0.0027617)
(-0.0864681 0.198154 0.0175593)
(-0.0864681 0.198154 -0.0175593)
(-0.0857227 0.0071189 0.00259098)
(-0.0857227 0.00711889 -0.00259098)
(0.20043 -0.00331452 0.00270831)
(0.20043 -0.00331452 -0.00270831)
(-0.0841016 -0.160829 -0.0100062)
(-0.0841016 -0.160829 0.0100062)
(-0.0771826 0.220443 0.0160071)
(-0.0771826 0.220443 -0.0160071)
(-0.0704087 0.0105081 0.00230403)
(-0.0704087 0.0105081 -0.00230403)
(0.271915 -0.0377507 0.0112476)
(0.271915 -0.0377507 -0.0112476)
(-0.0524662 -0.122105 -0.00427178)
(-0.0524662 -0.122105 0.00427178)
(-0.0422288 0.0110249 0.00564659)
(-0.0422288 0.0110249 -0.00564659)
(-0.0612001 0.260378 0.0377326)
(-0.0612001 0.260378 -0.0377326)
(-0.0248344 -0.055142 -0.00181824)
(-0.0248344 -0.055142 0.00181824)
(0.374108 -0.0573209 -0.0155875)
(0.374108 -0.0573209 0.0155875)
(-0.0223094 0.00588791 0.00586289)
(-0.0223094 0.0058879 -0.00586289)
(-0.0371612 0.200602 0.0439245)
(-0.0371612 0.200602 -0.0439245)
(-0.010607 -0.0289641 0.000207047)
(-0.010607 -0.0289641 -0.000207047)
(0.613855 -0.0348718 -0.0129678)
(0.613855 -0.0348718 0.0129678)
(0.604722 0.0415397 0.0270782)
(0.604722 0.0415396 -0.0270782)
(-0.00985987 0.0289633 0.00301164)
(-0.00985987 0.0289633 -0.00301164)
(0.353226 0.0641965 0.0320997)
(0.353226 0.0641965 -0.0320997)
(-0.0236599 0.0587914 0.00446052)
(-0.0236599 0.0587913 -0.00446052)
(-0.0216491 -0.00592895 -0.00295085)
(-0.0216491 -0.00592895 0.00295085)
(-0.0452888 -0.22043 -0.0402735)
(-0.0452888 -0.22043 0.0402735)
(-0.075291 -0.282449 -0.0322499)
(-0.075291 -0.282449 0.0322499)
(-0.0439141 -0.0121716 -0.00297733)
(-0.0439141 -0.0121716 0.00297733)
(-0.143388 0.191124 0.0163379)
(-0.143388 0.191124 -0.0163379)
(-0.0451133 -0.0282165 0.00348335)
(-0.0451133 -0.0282165 -0.00348335)
(-0.124937 0.0158644 0.00359243)
(-0.124937 0.0158644 -0.00359243)
(-0.132147 -0.153694 -0.00529135)
(-0.132147 -0.153694 0.00529135)
(-0.175881 0.1259 0.0128531)
(-0.175881 0.1259 -0.0128531)
(-0.163359 0.0153435 0.00436029)
(-0.163359 0.0153435 -0.00436029)
(-0.165499 0.118045 0.011374)
(-0.165499 0.118045 -0.011374)
(-0.164347 -0.00620678 0.00209299)
(-0.164347 -0.00620679 -0.00209299)
(0.146302 0.205146 0.0570596)
(0.146302 0.205146 -0.0570596)
(-0.0161602 0.0234109 0.00417585)
(-0.0161602 0.0234109 -0.00417585)
(-0.0964366 -0.36276 -0.0668163)
(-0.0964366 -0.36276 0.0668163)
(-0.0217143 -0.0130427 -0.00193505)
(-0.0217143 -0.0130427 0.00193505)
(-0.0930418 0.331123 0.06794)
(-0.0930418 0.331123 -0.06794)
(-0.0221509 0.0127563 0.00465876)
(-0.0221509 0.0127563 -0.00465876)
(0.17883 -0.203111 -0.053532)
(0.17883 -0.203111 0.053532)
(-0.0158149 -0.0224542 -0.00101003)
(-0.0158149 -0.0224542 0.00101003)
(-0.145086 0.11856 0.0226621)
(-0.145086 0.11856 -0.0226621)
(-0.131656 0.100064 0.00894529)
(-0.131656 0.100064 -0.00894529)
(-0.181739 -0.186055 -0.0107121)
(-0.181739 -0.186055 0.0107121)
(-0.137762 -0.0446169 -0.000949566)
(-0.137762 -0.0446168 0.000949566)
(-0.124975 0.178113 0.0293624)
(-0.124975 0.178113 -0.0293624)
(-0.107513 0.0841647 0.00544113)
(-0.107513 0.0841646 -0.00544113)
(-0.165705 -0.208132 -0.0175953)
(-0.165705 -0.208132 0.0175953)
(-0.115384 -0.0553131 -0.00232527)
(-0.115384 -0.0553131 0.00232527)
(-0.0937268 0.254754 0.0400586)
(-0.0937268 0.254754 -0.0400586)
(-0.0698339 0.0519414 0.00667068)
(-0.0698339 0.0519414 -0.00667068)
(-0.0999006 -0.252226 -0.0308932)
(-0.0999006 -0.252226 0.0308932)
(-0.0688933 -0.0540212 -0.00283464)
(-0.0688933 -0.0540212 0.00283464)
(-0.130122 0.213569 0.016058)
(-0.130122 0.213569 -0.016058)
(0.0350729 -0.0401589 -0.00207832)
(0.0350729 -0.0401589 0.00207832)
(-0.106851 0.0163141 0.0015057)
(-0.106851 0.0163141 -0.0015057)
(-0.112295 -0.148307 -0.00240828)
(-0.112295 -0.148307 0.00240828)
(-0.140557 0.240348 0.0213406)
(-0.140557 0.240348 -0.0213406)
(-0.0998339 0.0438499 0.00434825)
(-0.0998339 0.0438499 -0.00434825)
(-0.0666591 -0.145578 -0.00501782)
(-0.0666591 -0.145578 0.00501782)
(-0.0984789 -0.0920194 -0.000897839)
(-0.0984789 -0.0920194 0.000897839)
(-0.114116 0.29145 0.0294861)
(-0.114116 0.29145 -0.0294861)
(-0.0686057 0.0266434 0.0036545)
(-0.0686057 0.0266434 -0.0036545)
(0.0764219 -0.141338 -0.0135676)
(0.0764219 -0.141338 0.0135676)
(-0.0549619 -0.0766655 -0.00160927)
(-0.0549619 -0.0766655 0.00160927)
(-0.072657 0.115635 0.0101569)
(-0.072657 0.115635 -0.0101569)
(0.0936165 0.080996 0.0270392)
(0.0936164 0.080996 -0.0270392)
(-0.091157 -0.0196418 0.000103158)
(-0.091157 -0.0196418 -0.000103158)
(-0.12398 -0.26364 -0.0212065)
(-0.12398 -0.26364 0.0212065)
(-0.126549 0.247485 0.0205699)
(-0.126549 0.247485 -0.0205699)
(-0.0956041 0.0268471 0.00289301)
(-0.0956041 0.0268471 -0.00289301)
(0.0361998 -0.0888659 -0.00409151)
(0.0361998 -0.0888658 0.00409151)
(-0.09064 -0.116644 -0.00304897)
(-0.09064 -0.116644 0.00304897)
(0.0504638 0.252797 0.074678)
(0.0504638 0.252797 -0.074678)
(-0.0108246 0.0128405 0.0049939)
(-0.0108246 0.0128405 -0.0049939)
(-0.0578597 -0.353805 -0.0909557)
(-0.0578597 -0.353805 0.0909557)
(-0.0124964 -0.0095169 -0.00135784)
(-0.0124964 -0.0095169 0.00135784)
(-0.0722665 0.328746 0.0884473)
(-0.0722665 0.328746 -0.0884473)
(0.0807524 -0.26311 -0.077081)
(0.0807524 -0.26311 0.077081)
(-0.0131525 0.00985908 0.00427419)
(-0.0131525 0.00985907 -0.00427419)
(-0.0104342 -0.0121414 -0.00197156)
(-0.0104342 -0.0121414 0.00197156)
(-0.110497 0.260184 0.0216559)
(-0.110497 0.260184 -0.0216559)
(-0.0836847 0.0230369 0.00275668)
(-0.0836847 0.0230369 -0.00275668)
(0.0926635 -0.0807678 -0.00709707)
(0.0926635 -0.0807678 0.00709707)
(-0.0726485 -0.109801 -0.00242278)
(-0.0726485 -0.109801 0.00242278)
(-0.200039 0.0489876 0.00805865)
(-0.200039 0.0489876 -0.00805865)
(-0.192727 0.0948629 0.0121168)
(-0.192727 0.0948629 -0.0121168)
(0.693906 0.0213832 0.018926)
(0.693906 0.0213832 -0.018926)
(-0.00880337 0.0472659 0.00425255)
(-0.00880336 0.0472659 -0.00425255)
(-0.0282698 -0.00148422 -0.0016416)
(-0.0282698 -0.00148421 0.0016416)
(-0.0244474 -0.13785 -0.0163372)
(-0.0244474 -0.13785 0.0163372)
(-0.0598097 -0.23122 -0.0220997)
(-0.0598097 -0.23122 0.0220997)
(-0.0506126 -0.00645881 1.29098e-05)
(-0.0506126 -0.00645882 -1.29098e-05)
(0.422218 0.0489499 0.0182231)
(0.422218 0.0489499 -0.0182231)
(-0.0223971 0.0777855 0.00701667)
(-0.0223971 0.0777855 -0.00701667)
(0.853936 0.0125999 0.0156202)
(0.853936 0.0125999 -0.0156202)
(-0.00311409 0.0163218 0.00194065)
(-0.0031141 0.0163218 -0.00194065)
(-0.0106756 -0.00115158 -0.00193512)
(-0.0106756 -0.00115157 0.00193512)
(-0.0123928 -0.0815802 -0.0177297)
(-0.0123928 -0.0815802 0.0177297)
(-0.0115439 0.0791618 0.0226105)
(-0.0115439 0.0791618 -0.0226105)
(0.848585 -0.008094 -0.0040542)
(0.848585 -0.008094 0.0040542)
(-0.0117007 0.00195706 0.00389235)
(-0.0117007 0.00195706 -0.00389235)
(-0.00583892 -0.0183592 0.000179107)
(-0.00583892 -0.0183592 -0.000179107)
(-0.0398234 0.105646 0.00911424)
(-0.0398234 0.105646 -0.00911424)
(0.309523 0.0496937 0.0142552)
(0.309523 0.0496936 -0.0142552)
(-0.0671114 -0.00870205 -0.000114718)
(-0.0671114 -0.00870204 0.000114718)
(-0.0792329 -0.235644 -0.0172799)
(-0.0792329 -0.235644 0.0172799)
(-0.119688 0.267935 0.0269432)
(-0.119688 0.267935 -0.0269432)
(-0.0794695 0.0422345 0.00394403)
(-0.0794695 0.0422345 -0.00394403)
(-0.0484023 -0.18464 -0.0157701)
(-0.0484023 -0.18464 0.0157701)
(-0.0737284 -0.0717871 -0.00283987)
(-0.0737284 -0.0717871 0.00283987)
(-0.198511 -0.0309307 0.00386951)
(-0.198511 -0.0309307 -0.00386951)
(-0.188564 -0.00728448 0.00223407)
(-0.188564 -0.00728447 -0.00223407)
)
;

boundaryField
{
    frontAndBack
    {
        type            empty;
    }
    movingWall
    {
        type            fixedValue;
        value           uniform (1 0 0);
    }
    fixedWalls
    {
        type            noSlip;
    }
}


// ************************************************************************* //
