/*--------------------------------*- C++ -*----------------------------------*\
| =========                 |                                                 |
| \\      /  F ield         | OpenFOAM: The Open Source CFD Toolbox           |
|  \\    /   O peration     | Version:  4.1                                   |
|   \\  /    A nd           | Web:      www.OpenFOAM.org                      |
|    \\/     M anipulation  |                                                 |
\*---------------------------------------------------------------------------*/
FoamFile
{
    version     2.0;
    format      ascii;
    class       volScalarField;
    location    "0.5";
    object      p;
}
// * * * * * * * * * * * * * * * * * * * * * * * * * * * * * * * * * * * * * //

dimensions      [0 2 -2 0 0 0 0];

internalField   nonuniform List<scalar> 
500
(
-1.59172e-06
-3.04235e-06
3.11987
3.11987
0.0147005
0.0147005
-2.29155
-2.29155
-0.0467493
-0.0467493
2.59749
2.59749
0.0166089
0.0166089
-2.82675
-2.82675
-0.0445551
-0.0445551
-0.00526617
-0.0052666
-0.0993403
-0.0993403
-0.167268
-0.167268
0.00441348
0.00441346
0.0538762
0.0538762
-0.0295699
-0.0295699
-0.075654
-0.075654
-0.0548007
-0.0548007
-0.0923411
-0.0923411
-0.104076
-0.104076
-0.109898
-0.109898
0.00390529
0.0039053
0.0746485
0.0746485
0.001077
0.00107697
-0.175527
-0.175527
-0.0366314
-0.0366313
-0.0258445
-0.0258445
0.0473397
0.0473397
-0.209996
-0.209996
0.0495479
0.0495479
-0.0452535
-0.0452535
0.00487479
0.00487479
-0.0752065
-0.0752065
0.00882423
0.00882409
-0.0489936
-0.0489936
-0.00289668
-0.00289671
-0.0182723
-0.0182723
-0.0514699
-0.05147
-0.030687
-0.030687
-0.243141
-0.243141
0.0276321
0.0276321
-0.0358056
-0.0358056
0.0104074
0.0104074
0.629037
0.629037
0.0285375
0.0285375
-0.455345
-0.455345
-0.0355854
-0.0355854
-0.6115
-0.6115
0.389883
0.389883
-0.0558999
-0.0558999
0.00247272
0.00247272
-0.0679058
-0.0679058
-0.323233
-0.323233
0.0365384
0.0365384
0.234918
0.234918
-0.046563
-0.046563
-0.33019
-0.33019
0.0286271
0.0286271
0.182846
0.182846
-0.0960342
-0.0960342
-0.126128
-0.126128
-0.00454055
-0.00454055
0.0573713
0.0573713
-0.442375
-0.442375
-0.0488789
-0.0488789
0.326662
0.326662
0.0103592
0.0103591
-0.171452
-0.171452
-0.0206535
-0.0206535
-0.0189847
-0.0189847
0.101739
0.101739
-0.0519942
-0.0519942
-0.198294
-0.198294
0.0583872
0.0583872
0.0491312
0.0491311
-0.482122
-0.482122
-0.0543942
-0.0543942
0.586798
0.586798
0.0205954
0.0205954
-0.249659
-0.249659
-0.045413
-0.045413
0.0417843
0.0417843
0.0266698
0.0266698
-0.122141
-0.122141
-0.00637684
-0.00637691
-0.120175
-0.120175
0.0336641
0.0336639
-0.104181
-0.104181
-0.0833044
-0.0833044
-0.00466356
-0.00466357
0.0983177
0.0983177
-0.0862657
-0.0862657
-0.162998
-0.162998
-0.0171177
-0.0171176
0.124645
0.124645
0.819897
0.819897
0.0366409
0.036641
-0.585977
-0.585977
-0.0258979
-0.0258979
-0.781761
-0.781761
0.569422
0.569422
-0.0641588
-0.0641588
-0.005514
-0.00551401
-0.0403225
-0.0403225
-0.471487
-0.471487
0.0225018
0.0225019
0.381921
0.381921
-0.616129
-0.616129
-0.0506754
-0.0506754
0.404139
0.404139
0.0205358
0.0205358
1.35059
1.35059
0.0274593
0.0274593
-0.844149
-0.844149
-0.0341588
-0.0341588
0.938169
0.938169
-1.22617
-1.22617
0.00372756
0.00372755
-0.0565821
-0.0565821
-0.106998
-0.106998
-0.13759
-0.13759
-0.0116726
-0.0116726
0.115943
0.115943
1.60846
1.60846
0.0257894
0.0257894
-1.13661
-1.13661
-0.0357318
-0.0357318
1.27257
1.27257
-1.4761
-1.4761
0.00544905
0.00544905
-0.0554426
-0.0554425
-0.475282
-0.475282
-0.0471466
-0.0471466
0.435901
0.435901
0.018434
0.018434
-0.0403933
-0.0403933
-0.160955
-0.160955
0.0586434
0.0586433
0.0257292
0.0257292
-0.211776
-0.211776
-0.0312681
-0.0312681
-0.0327259
-0.032726
0.12089
0.12089
-0.195308
-0.195308
-0.0280532
-0.0280532
-0.137067
-0.137067
0.0520091
0.0520091
-0.0545989
-0.0545989
-0.365022
-0.365022
0.0175794
0.0175794
0.15092
0.15092
-0.0543317
-0.0543317
-0.40778
-0.40778
-0.00192678
-0.00192678
0.120932
0.120932
-0.264919
-0.264919
-0.0296523
-0.0296523
-0.317678
-0.317678
-0.0442214
-0.0442214
0.0290961
0.0290961
0.396135
0.396135
0.319675
0.319675
0.0295544
0.0295544
-0.15419
-0.15419
-0.0358428
-0.0358428
-0.0336498
-0.0336498
0.0548391
0.0548391
-0.130216
-0.130216
-0.0414474
-0.0414474
-0.112888
-0.112888
-0.0213667
-0.0213667
-0.584837
-0.584837
-0.0428406
-0.0428406
0.688377
0.688377
0.0198706
0.0198706
-0.703805
-0.703805
-0.048375
-0.048375
0.556591
0.556591
0.0104938
0.0104938
-0.220064
-0.220064
-0.0904348
-0.0904348
0.103543
0.103543
0.00922841
0.00922839
-0.260079
-0.260079
-0.0502275
-0.0502275
0.15477
0.15477
0.021273
0.021273
-0.384031
-0.384031
-0.063998
-0.063998
0.296324
0.296324
0.0272009
0.027201
-0.194104
-0.194104
0.0258504
0.0258504
-0.0182366
-0.0182366
0.0299898
0.0299897
-0.268974
-0.268974
-0.0556535
-0.0556535
0.063696
0.063696
0.0115066
0.0115066
-0.382114
-0.382114
-0.0470883
-0.0470883
0.174485
0.174485
0.0207317
0.0207317
-0.0998237
-0.0998237
-0.2646
-0.2646
-0.00100599
-0.00100598
0.207346
0.207346
-0.264107
-0.264107
-0.037144
-0.037144
0.0525493
0.0525494
0.0391551
0.0391551
-0.770188
-0.770188
-0.0514566
-0.0514566
0.937651
0.937651
0.0140005
0.0140005
-0.913202
-0.913202
0.795325
0.795325
-0.044112
-0.044112
0.0203627
0.0203627
-0.282485
-0.282485
-0.035962
-0.035962
0.0926009
0.092601
0.0316113
0.0316112
-0.0780415
-0.0780416
-0.118383
-0.118383
-0.205028
-0.205028
-0.0458272
-0.0458272
0.0177133
0.0177133
0.176193
0.176193
0.240435
0.240435
-0.000132481
-0.000132465
-0.198061
-0.198061
-0.0763726
-0.0763726
-0.224967
-0.224967
-0.027996
-0.027996
0.027961
0.027961
0.25591
0.25591
-0.289376
-0.289376
0.0518255
0.0518254
-0.0498142
-0.0498143
-0.0023022
-0.0023022
-0.0958926
-0.0958926
-0.150521
-0.150521
0.00121472
0.00121466
0.182323
0.182323
-0.340792
-0.340792
-0.049798
-0.0497979
0.198994
0.198994
0.0358712
0.0358712
-0.0398204
-0.0398206
-0.0245876
-0.0245876
)
;

boundaryField
{
    frontAndBack
    {
        type            empty;
    }
    movingWall
    {
        type            zeroGradient;
    }
    fixedWalls
    {
        type            zeroGradient;
    }
}


// ************************************************************************* //
