/*--------------------------------*- C++ -*----------------------------------*\
| =========                 |                                                 |
| \\      /  F ield         | OpenFOAM: The Open Source CFD Toolbox           |
|  \\    /   O peration     | Version:  4.1                                   |
|   \\  /    A nd           | Web:      www.OpenFOAM.org                      |
|    \\/     M anipulation  |                                                 |
\*---------------------------------------------------------------------------*/
FoamFile
{
    version     2.0;
    format      ascii;
    class       surfaceScalarField;
    location    "0.5";
    object      phi;
}
// * * * * * * * * * * * * * * * * * * * * * * * * * * * * * * * * * * * * * //

dimensions      [0 3 -1 0 0 0 0];

internalField   nonuniform List<scalar> 
960
(
6.1974e-12
-4.65402e-06
-4.33204e-06
8.98609e-06
-4.65403e-06
-4.33205e-06
8.98608e-06
5.15921e-14
-1.65843e-05
1.65843e-05
-1.65843e-05
1.65843e-05
9.50457e-14
-8.9714e-08
8.9714e-08
-8.97142e-08
8.97139e-08
1.0033e-13
-1.55388e-05
1.55388e-05
-1.55388e-05
1.55388e-05
6.2745e-14
-1.0411e-07
1.0411e-07
-1.0411e-07
1.0411e-07
4.91026e-14
-1.65843e-05
-1.65843e-05
-4.38852e-15
-8.97134e-08
-8.97135e-08
-1.43437e-14
-1.55388e-05
-1.55388e-05
9.996e-15
-1.0411e-07
-1.0411e-07
2.37347e-12
5.55135e-06
-1.02054e-05
5.55135e-06
-1.02054e-05
1.50178e-14
1.07556e-05
-3.3784e-06
-7.3772e-06
1.07556e-05
-3.3784e-06
-7.3772e-06
1.604e-14
7.15902e-07
-4.08802e-06
3.37212e-06
7.15902e-07
-4.08802e-06
3.37212e-06
7.81707e-14
4.19251e-06
2.92241e-06
-7.11492e-06
4.19251e-06
2.92241e-06
-7.11492e-06
4.34888e-14
-5.56303e-06
9.31702e-06
-3.75399e-06
-5.56303e-06
9.31702e-06
-3.75399e-06
8.41145e-14
1.02715e-05
-5.3703e-06
-4.90117e-06
1.02715e-05
-5.3703e-06
-4.90117e-06
3.46563e-14
6.27143e-06
2.35894e-06
-8.63037e-06
6.27143e-06
2.35894e-06
-8.63036e-06
2.0706e-14
2.07421e-06
8.19726e-06
2.07421e-06
8.19726e-06
1.62806e-13
-1.55501e-06
7.82644e-06
-1.55501e-06
7.82644e-06
-2.30069e-14
2.80779e-06
7.94781e-06
2.80779e-06
7.94781e-06
-7.18539e-14
2.48221e-06
-1.7663e-06
2.48221e-06
-1.7663e-06
-4.71641e-14
-1.57952e-06
5.77203e-06
-1.57952e-06
5.77203e-06
1.61096e-13
-1.23804e-05
6.81741e-06
-1.23804e-05
6.81741e-06
1.53607e-13
-4.57948e-06
1.01308e-05
-4.57948e-06
1.01308e-05
-4.58153e-14
5.17798e-06
-5.17798e-06
5.17798e-06
-5.17798e-06
-6.8482e-14
3.91789e-05
-3.91789e-05
3.91789e-05
-3.91789e-05
-4.13949e-14
1.74312e-06
-1.74312e-06
1.74312e-06
-1.74312e-06
1.6991e-14
3.84648e-06
-3.84648e-06
3.84648e-06
-3.84648e-06
-3.31944e-14
9.71362e-07
4.20662e-06
9.71362e-07
4.20662e-06
-7.30446e-14
1.18217e-05
2.73572e-05
1.18217e-05
2.73572e-05
-4.96021e-14
1.03777e-06
7.0535e-07
1.03777e-06
7.0535e-07
3.90705e-14
2.77343e-06
1.07305e-06
2.77343e-06
1.07305e-06
1.26098e-13
-5.64303e-06
-5.64303e-06
4.77305e-13
-8.88353e-07
-8.88354e-07
1.55649e-14
-3.37123e-06
5.44544e-06
-3.37123e-06
5.44544e-06
1.13625e-13
-6.76139e-06
2.18191e-06
-6.76139e-06
2.18191e-06
-2.44471e-14
5.98977e-06
4.14106e-06
5.98977e-06
4.14106e-06
2.03248e-13
6.99449e-06
-4.63555e-06
6.99449e-06
-4.63555e-06
1.41869e-13
3.12129e-06
-8.49159e-06
3.12129e-06
-8.49159e-06
7.92631e-15
-8.26771e-06
9.23907e-06
-8.26771e-06
9.23907e-06
4.47144e-14
-4.08461e-06
1.59063e-05
-4.08461e-06
1.59063e-05
3.4731e-14
-8.75495e-07
1.91326e-06
-8.75495e-07
1.91326e-06
-2.75178e-15
-4.00065e-08
2.81344e-06
-4.00064e-08
2.81344e-06
1.0062e-13
-1.0759e-05
1.0759e-05
-1.0759e-05
1.0759e-05
3.27993e-14
-6.99812e-07
6.99814e-07
-6.99812e-07
6.99814e-07
6.04339e-14
-3.05627e-05
3.05627e-05
-3.05627e-05
3.05627e-05
5.98234e-14
-8.61089e-07
8.61089e-07
-8.61089e-07
8.61089e-07
-4.66226e-14
9.79189e-06
-9.79189e-06
9.79189e-06
-9.79189e-06
1.67537e-14
3.18821e-05
-3.18821e-05
3.18821e-05
-3.18821e-05
-2.95404e-14
7.27155e-07
-7.27155e-07
7.27155e-07
-7.27155e-07
-1.55075e-14
8.37591e-07
-8.37591e-07
8.37591e-07
-8.37591e-07
3.42498e-15
-7.07986e-06
4.21013e-07
6.65885e-06
-7.07986e-06
4.21013e-07
6.65885e-06
-9.05089e-14
-9.89779e-06
4.42147e-06
5.47632e-06
-9.89779e-06
4.42147e-06
5.47632e-06
-2.86468e-14
-4.61674e-06
-3.81272e-07
4.99801e-06
-4.61674e-06
-3.81272e-07
4.99801e-06
1.11476e-13
1.80119e-06
-1.30532e-05
1.1252e-05
1.80119e-06
-1.30532e-05
1.1252e-05
-1.1332e-14
-3.72083e-06
-3.35904e-06
-3.72083e-06
-3.35904e-06
-2.15741e-14
-1.30062e-05
3.10842e-06
-1.30062e-05
3.10841e-06
6.62518e-14
-5.25443e-07
-4.09129e-06
-5.25443e-07
-4.09129e-06
4.45549e-15
1.41432e-05
-1.2342e-05
1.41432e-05
-1.2342e-05
-8.40763e-16
-1.98585e-06
-3.19213e-06
-1.98585e-06
-3.19213e-06
-4.76186e-14
-3.14243e-05
-7.7546e-06
-3.14243e-05
-7.7546e-06
2.08267e-15
-1.04816e-06
-6.94959e-07
-1.04816e-06
-6.94959e-07
8.1572e-15
-4.13618e-06
2.89697e-07
-4.13618e-06
2.89697e-07
-8.28001e-15
1.59723e-05
-3.6538e-06
-1.23185e-05
1.59723e-05
-3.6538e-06
-1.23185e-05
-1.36733e-14
2.25738e-06
-1.89146e-06
-3.65928e-07
2.25738e-06
-1.89146e-06
-3.65928e-07
-1.10798e-14
7.17573e-06
-1.13814e-05
4.20568e-06
7.17573e-06
-1.13814e-05
4.20568e-06
4.2683e-14
2.42401e-06
-3.0489e-06
6.24892e-07
2.42401e-06
-3.0489e-06
6.24892e-07
-2.39388e-14
-6.32127e-06
-1.92754e-06
8.24881e-06
-6.32127e-06
-1.92754e-06
8.24881e-06
-5.543e-14
-3.8542e-06
-6.95687e-06
1.08111e-05
-3.8542e-06
-6.95687e-06
1.08111e-05
-4.1417e-14
-2.21424e-06
-2.18159e-06
4.39583e-06
-2.21424e-06
-2.18159e-06
4.39583e-06
5.72997e-14
-8.28696e-07
-8.80865e-06
9.63735e-06
-8.28696e-07
-8.80865e-06
9.63735e-06
4.4182e-14
4.77719e-06
-8.14842e-06
4.77719e-06
-8.14842e-06
-6.82537e-15
1.38452e-05
-7.55379e-06
-6.29144e-06
1.38452e-05
-7.55379e-06
-6.29144e-06
8.11253e-14
1.57841e-06
-8.3398e-06
1.57841e-06
-8.3398e-06
2.3579e-13
-9.44414e-06
3.90102e-06
5.54312e-06
-9.44414e-06
3.90102e-06
5.54312e-06
-5.70827e-15
7.04726e-06
-1.23372e-05
5.28989e-06
7.04726e-06
-1.23372e-05
5.28989e-06
2.3885e-14
2.67805e-06
-2.56272e-06
-1.15322e-07
2.67805e-06
-2.56272e-06
-1.15322e-07
9.31481e-14
1.69064e-05
8.33498e-08
-1.69898e-05
1.69064e-05
8.33497e-08
-1.69898e-05
-1.63649e-14
2.40192e-06
-2.17576e-06
-2.26166e-07
2.40192e-06
-2.17576e-06
-2.26165e-07
-5.69619e-15
3.79114e-06
1.00541e-05
3.79114e-06
1.00541e-05
3.27014e-14
5.65259e-06
-8.75402e-07
5.65259e-06
-8.75402e-07
8.76716e-14
-1.32785e-06
-8.11629e-06
-1.32785e-06
-8.11629e-06
4.68075e-14
5.45846e-06
-3.88005e-06
5.45846e-06
-3.88005e-06
-2.74818e-15
-1.9835e-06
-5.57029e-06
-1.9835e-06
-5.57029e-06
2.77207e-13
-4.72935e-06
-4.72934e-06
4.72539e-14
5.84294e-06
5.84294e-06
8.79745e-13
-9.06139e-06
-9.06139e-06
-8.81403e-15
-3.14243e-05
-3.14243e-05
1.44871e-14
-1.98585e-06
-1.98585e-06
2.44871e-14
-1.04816e-06
-1.04816e-06
-1.00079e-14
-4.13618e-06
-4.13618e-06
-4.78462e-14
-3.51348e-06
-3.51348e-06
-1.27783e-13
-1.372e-06
-1.372e-06
-1.26356e-13
-3.79376e-06
-3.79376e-06
1.62573e-13
-1.32091e-05
-1.32091e-05
4.72945e-14
-1.10518e-05
2.92714e-07
-1.10518e-05
2.92714e-07
-5.58827e-14
-2.28564e-07
-4.71251e-07
-2.28564e-07
-4.71251e-07
-1.59195e-14
-2.17962e-05
-8.76655e-06
-2.17962e-05
-8.76655e-06
-1.55361e-14
-2.64525e-07
-5.96565e-07
-2.64525e-07
-5.96565e-07
3.67368e-15
9.82497e-06
-3.30782e-08
9.82497e-06
-3.30782e-08
5.07542e-14
2.28334e-05
9.04869e-06
2.28334e-05
9.04869e-06
7.97084e-15
2.49225e-07
4.77931e-07
2.49225e-07
4.77931e-07
3.91095e-15
2.46799e-07
5.90792e-07
2.46799e-07
5.90792e-07
-4.81929e-14
3.09906e-06
3.09906e-06
-1.8266e-13
1.14687e-05
1.14687e-05
-1.68171e-13
2.02065e-06
2.02065e-06
1.57492e-13
3.85322e-06
3.85322e-06
5.10938e-14
4.91337e-07
1.5481e-05
4.91337e-07
1.5481e-05
2.60566e-14
2.00813e-06
2.49258e-07
2.00813e-06
2.49258e-07
6.13364e-15
1.1309e-05
-4.13332e-06
1.1309e-05
-4.13332e-06
6.05157e-14
2.33562e-06
8.83912e-08
2.33562e-06
8.83911e-08
-1.40961e-14
-1.10518e-05
-1.10518e-05
3.93334e-15
-2.28565e-07
-2.28565e-07
2.96702e-14
-2.17962e-05
-2.17962e-05
-3.76211e-15
-2.64525e-07
-2.64525e-07
2.03733e-14
2.28334e-05
2.28334e-05
7.57467e-15
9.82497e-06
9.82497e-06
1.51513e-14
2.46798e-07
2.46798e-07
-2.3122e-15
2.49226e-07
2.49225e-07
-6.559e-15
-5.11967e-06
-5.11967e-06
-6.43661e-15
-1.47115e-05
-1.47115e-05
-2.02419e-14
-2.87656e-06
-2.87656e-06
7.68728e-15
-8.51895e-06
-8.51895e-06
-1.06739e-13
5.53258e-06
5.53258e-06
7.46046e-14
-1.38851e-07
-1.38851e-07
5.49284e-14
-6.25739e-06
-6.25739e-06
4.6937e-15
-1.60415e-07
-1.60415e-07
-5.40356e-14
6.24909e-06
6.24909e-06
-4.81983e-14
-5.71384e-06
-5.71384e-06
-2.07701e-14
1.57085e-07
1.57085e-07
-5.34807e-14
1.45115e-07
1.45115e-07
-2.74617e-14
-1.18458e-05
-1.18458e-05
-6.44357e-15
-5.54599e-07
-5.54599e-07
1.46028e-14
1.13924e-05
1.13924e-05
-1.02376e-14
1.59858e-07
1.59858e-07
6.94749e-14
-4.13741e-06
-4.01102e-06
-4.13741e-06
-4.01102e-06
2.56609e-14
3.07291e-06
-9.36435e-06
3.07291e-06
-9.36435e-06
2.42088e-13
-9.22815e-06
-9.22815e-06
1.69487e-13
-9.99141e-08
-9.99143e-08
1.15084e-14
9.019e-06
-7.70191e-07
9.019e-06
-7.70191e-07
4.44694e-14
2.67712e-06
1.71872e-06
2.67712e-06
1.71872e-06
6.82525e-14
8.55103e-06
2.26004e-06
8.55103e-06
2.26004e-06
-8.71583e-15
4.0235e-06
5.61384e-06
4.0235e-06
5.61384e-06
8.96047e-15
7.51293e-07
7.51293e-07
-9.38942e-15
1.80162e-06
1.80162e-06
-2.95283e-15
4.46642e-06
4.46642e-06
3.2902e-14
3.98349e-06
3.98349e-06
-2.67778e-14
2.18055e-08
2.18055e-08
-4.16809e-15
5.58527e-06
5.58527e-06
2.04977e-14
-2.3546e-07
-2.3546e-07
-4.21949e-14
4.52492e-06
4.52492e-06
1.09706e-14
-7.0535e-07
-7.0535e-07
2.25445e-14
-4.20662e-06
-4.20662e-06
8.59474e-15
-1.07305e-06
-1.07305e-06
1.0645e-14
-2.73572e-05
-2.73572e-05
-1.84118e-14
5.32983e-06
2.52329e-05
5.32983e-06
2.52329e-05
1.61013e-15
-3.86712e-08
8.9976e-07
-3.86713e-08
8.9976e-07
-1.21705e-13
1.67986e-05
1.67986e-05
-6.31321e-14
3.06039e-06
3.06039e-06
-2.92044e-14
9.04322e-08
6.09382e-07
9.04321e-08
6.09382e-07
3.66179e-14
6.57731e-06
4.18173e-06
6.57731e-06
4.18173e-06
2.97417e-14
1.04305e-05
1.04305e-05
-1.04299e-13
2.11108e-06
2.11108e-06
3.46909e-15
1.10207e-05
1.10207e-05
6.02228e-14
-1.86622e-06
-1.86622e-06
4.63326e-14
1.63463e-06
1.63462e-06
9.66931e-14
-2.41075e-06
-2.41075e-06
2.71567e-14
-4.81886e-06
-4.54549e-06
-4.81886e-06
-4.54549e-06
3.82297e-14
-8.91218e-06
-8.91218e-06
1.77648e-14
7.95113e-14
-3.99547e-15
-3.47666e-06
-3.47666e-06
-1.4908e-14
-7.11888e-07
-7.11888e-07
-2.36326e-14
-1.6697e-05
-1.6697e-05
-3.48142e-15
-6.97417e-07
-6.97417e-07
1.31164e-14
1.54479e-05
1.54479e-05
-2.00055e-15
7.27188e-07
7.27188e-07
-1.47471e-14
4.91537e-06
4.91537e-06
2.19078e-14
6.79183e-07
6.79183e-07
3.84457e-14
9.21506e-06
9.21506e-06
1.08522e-14
-1.93177e-06
-1.93177e-06
1.27086e-13
-1.28154e-05
-1.28154e-05
8.76145e-14
-4.93301e-06
-4.93301e-06
-4.94583e-14
-1.83223e-14
2.42028e-13
-9.09662e-14
-1.47802e-13
-8.7374e-06
-8.7374e-06
-5.62681e-14
-3.91363e-06
-3.91363e-06
9.94615e-14
-9.49647e-07
-9.49647e-07
-1.33487e-13
-3.93144e-06
-3.93144e-06
-9.50737e-15
1.02505e-05
1.02505e-05
-2.08683e-14
3.93825e-07
3.93825e-07
-2.91632e-14
3.35334e-06
3.35334e-06
7.92637e-14
3.2031e-06
3.2031e-06
-1.13662e-15
-2.19801e-07
1.02739e-05
-2.19801e-07
1.02739e-05
1.46664e-14
-2.90515e-06
2.02975e-06
-2.90515e-06
2.02975e-06
5.59913e-14
-3.35128e-06
-4.765e-06
-3.35128e-06
-4.765e-06
-5.43604e-15
-4.8911e-06
1.01105e-06
-4.8911e-06
1.01105e-06
-1.0136e-14
-1.0782e-05
-1.53648e-06
-1.0782e-05
-1.53648e-06
-7.10644e-15
-2.24981e-06
1.88389e-06
-2.24981e-06
1.88389e-06
8.39832e-15
-1.50897e-06
5.71465e-06
-1.50897e-06
5.71465e-06
1.90584e-15
-2.2955e-06
2.92039e-06
-2.2955e-06
2.92039e-06
-2.51673e-14
3.14537e-06
3.14537e-06
-4.41958e-14
4.10432e-06
4.10432e-06
-4.18587e-14
1.20425e-06
1.20425e-06
4.21675e-14
-1.95712e-06
-1.95712e-06
1.86915e-15
1.00307e-05
1.00307e-05
-2.23945e-14
4.48192e-07
4.48192e-07
-1.54055e-14
-2.95746e-06
-2.95746e-06
4.74363e-14
-1.688e-06
-1.688e-06
9.27368e-15
-9.73405e-06
-9.73405e-06
-6.74438e-15
-8.72303e-07
-8.72303e-07
-6.68069e-14
-1.11645e-05
-1.11645e-05
3.26242e-14
-8.36268e-07
-8.36268e-07
-2.10562e-14
-7.85975e-14
-2.72571e-14
3.09898e-15
1.71594e-15
-6.19049e-14
-7.86045e-14
7.53889e-14
1.28048e-13
1.01158e-05
1.01158e-05
8.82925e-14
-1.27943e-13
-6.1914e-06
-2.52329e-05
-6.1914e-06
-2.52329e-05
-2.79247e-14
-1.08609e-06
-8.99761e-07
-1.08609e-06
-8.99761e-07
-9.3402e-14
-4.38772e-07
-6.09385e-07
-4.38772e-07
-6.09385e-07
8.2235e-14
4.55427e-08
-4.18172e-06
4.55426e-08
-4.18172e-06
5.69487e-15
1.04761e-05
1.04761e-05
-4.84658e-14
1.67231e-06
1.67231e-06
-6.96497e-14
1.06072e-05
1.06072e-05
-3.73018e-14
1.9743e-06
1.9743e-06
-1.50624e-13
-6.01282e-14
-1.54402e-13
9.36279e-14
3.98841e-14
5.84884e-14
5.13149e-14
-1.64962e-15
3.89983e-14
2.08448e-13
1.82208e-13
-1.79079e-13
-5.87614e-14
-2.21991e-14
5.35082e-14
-5.92927e-14
9.27099e-13
4.35054e-06
4.35053e-06
1.34989e-13
)
;

boundaryField
{
    frontAndBack
    {
        type            empty;
        value           nonuniform 0();
    }
    movingWall
    {
        type            calculated;
        value           uniform 0;
    }
    fixedWalls
    {
        type            calculated;
        value           uniform 0;
    }
}


// ************************************************************************* //
