/*--------------------------------*- C++ -*----------------------------------*\
| =========                 |                                                 |
| \\      /  F ield         | OpenFOAM: The Open Source CFD Toolbox           |
|  \\    /   O peration     | Version:  4.1                                   |
|   \\  /    A nd           | Web:      www.OpenFOAM.org                      |
|    \\/     M anipulation  |                                                 |
\*---------------------------------------------------------------------------*/
FoamFile
{
    version     2.0;
    format      ascii;
    class       volVectorField;
    location    "0.5";
    object      U;
}
// * * * * * * * * * * * * * * * * * * * * * * * * * * * * * * * * * * * * * //

dimensions      [0 1 -1 0 0 0 0];

internalField   nonuniform List<vector> 
500
(
(-0.195717 -0.0895781 2.32684e-07)
(-0.195717 -0.0895781 -2.32684e-07)
(0.123131 -0.171593 -0.296771)
(0.123131 -0.171593 0.296771)
(-0.000336247 -0.000729627 -0.00139592)
(-0.000336248 -0.000729629 0.00139592)
(0.368507 0.0545785 0.217955)
(0.368507 0.0545785 -0.217955)
(-0.000865276 0.000494146 0.00443919)
(-0.000865277 0.000494146 -0.00443919)
(0.38029 -0.0544494 -0.246217)
(0.38029 -0.0544494 0.246217)
(-0.000762515 -0.000329191 -0.0015771)
(-0.000762516 -0.000329193 0.0015771)
(0.0978212 0.167965 0.267978)
(0.0978212 0.167965 -0.267978)
(-0.000496674 0.000860989 0.00423075)
(-0.000496676 0.000860989 -0.00423075)
(-0.187226 -0.0998381 0.000556323)
(-0.187226 -0.0998381 -0.000556323)
(-0.135817 0.12799 0.0100355)
(-0.135817 0.12799 -0.0100355)
(-0.112109 0.0528792 0.0162067)
(-0.112109 0.0528792 -0.0162067)
(-0.140796 -0.020299 -0.000460406)
(-0.140796 -0.020299 0.000460406)
(-0.172444 -0.185696 -0.00523486)
(-0.172444 -0.185696 0.00523486)
(-0.178718 0.0419868 0.00343866)
(-0.178718 0.0419868 -0.00343866)
(-0.197725 -0.00887331 0.00875284)
(-0.197725 -0.00887332 -0.00875284)
(-0.171399 0.075559 0.00606218)
(-0.171399 0.075559 -0.00606218)
(-0.181504 0.0175433 0.0107375)
(-0.181504 0.0175433 -0.0107375)
(-0.121501 0.152399 0.0114986)
(-0.121501 0.152399 -0.0114986)
(-0.0465623 0.0353472 0.0109869)
(-0.0465623 0.0353472 -0.0109869)
(-0.125946 -0.0125914 -0.000435506)
(-0.125946 -0.0125914 0.000435506)
(-0.15688 -0.200287 -0.00744294)
(-0.15688 -0.200287 0.00744294)
(-0.173833 -0.0582939 -0.000109187)
(-0.173833 -0.0582938 0.000109187)
(-0.0161935 0.0798224 0.0188123)
(-0.0161935 0.0798224 -0.0188123)
(0.778324 -0.000656264 0.00393582)
(0.778324 -0.000656264 -0.00393582)
(-0.0250303 0.00139367 0.00276922)
(-0.0250303 0.00139367 -0.00276922)
(-0.0150991 -0.0540118 -0.0050732)
(-0.0150991 -0.0540118 0.0050732)
(-0.0292779 0.137046 0.0227123)
(-0.0292779 0.137046 -0.0227123)
(0.657848 -0.0179941 -0.00539899)
(0.657848 -0.0179941 0.00539899)
(-0.0340249 0.00321088 0.00489032)
(-0.0340249 0.00321088 -0.00489032)
(-0.0198529 -0.0625696 -0.000526991)
(-0.0198529 -0.0625696 0.000526991)
(-0.159754 0.00564249 0.00723417)
(-0.159754 0.00564249 -0.00723417)
(-0.180567 -0.125869 -0.000836373)
(-0.180567 -0.125869 0.000836373)
(-0.153489 0.0745644 0.00465424)
(-0.153489 0.0745644 -0.00465424)
(-0.160865 -0.0660374 0.000275946)
(-0.160865 -0.0660374 -0.000275946)
(-0.17738 -0.0316928 0.00165188)
(-0.17738 -0.0316927 -0.00165188)
(-0.200645 0.00151109 0.0052323)
(-0.200645 0.00151107 -0.0052323)
(-0.188523 0.0321031 0.00307653)
(-0.188523 0.0321031 -0.00307653)
(-0.0583257 0.208583 0.0240333)
(-0.0583257 0.208583 -0.0240333)
(0.423763 -0.0517169 -0.0027362)
(0.423763 -0.0517169 0.0027362)
(-0.0528301 0.00638864 0.00354311)
(-0.0528301 0.00638864 -0.00354311)
(-0.0302656 -0.0879964 -0.00103017)
(-0.0302656 -0.0879964 0.00103017)
(-0.0258495 -0.187503 -0.0595202)
(-0.0258495 -0.187503 0.0595202)
(-0.00975782 -0.00358968 -0.00270144)
(-0.00975782 -0.00358968 0.00270144)
(0.702439 0.0404816 0.0430481)
(0.702439 0.0404816 -0.0430481)
(-0.00546182 0.0119638 0.00336859)
(-0.00546182 0.0119638 -0.00336859)
(-0.021774 0.166483 0.059175)
(-0.021774 0.166483 -0.059175)
(0.714009 -0.0311707 -0.0378191)
(0.714009 -0.0311707 0.0378191)
(-0.0103088 0.00350458 0.00540417)
(-0.0103088 0.00350458 -0.00540417)
(-0.00549319 -0.0117547 -0.000239056)
(-0.00549319 -0.0117547 0.000239056)
(-0.0702179 0.0912124 0.00800835)
(-0.0702179 0.0912124 -0.00800835)
(0.0235924 0.152235 0.0381258)
(0.0235924 0.152235 -0.0381258)
(-0.0841421 -0.0324951 -0.0043176)
(-0.0841421 -0.0324951 0.0043176)
(-0.145274 -0.290608 -0.0276853)
(-0.145274 -0.290608 0.0276853)
(-0.0853636 0.0780385 0.0056425)
(-0.0853636 0.0780385 -0.0056425)
(-0.0695351 0.193059 0.0403917)
(-0.0695351 0.193059 -0.0403917)
(-0.0911559 -0.0445441 -0.003474)
(-0.0911559 -0.0445441 0.003474)
(-0.147043 -0.263114 -0.0223511)
(-0.147043 -0.263114 0.0223511)
(-0.0218752 0.0922875 0.0117733)
(-0.0218752 0.0922875 -0.0117733)
(0.65494 0.00817583 0.0153585)
(0.65494 0.00817583 -0.0153585)
(-0.0381814 -0.000127661 0.000556909)
(-0.0381814 -0.000127662 -0.000556909)
(-0.0247387 -0.105955 -0.00702264)
(-0.0247387 -0.105955 0.00702264)
(-0.0912608 0.309828 0.0483843)
(-0.0912608 0.309828 -0.0483843)
(-0.0510178 0.0191749 0.0053666)
(-0.0510178 0.0191749 -0.0053666)
(0.168034 -0.126786 -0.0358818)
(0.168034 -0.126786 0.0358818)
(-0.0371607 -0.0588486 -0.00113758)
(-0.0371607 -0.0588486 0.00113758)
(-0.0685587 0.171247 0.0169037)
(-0.0685587 0.171247 -0.0169037)
(0.23086 0.0240197 0.00202723)
(0.23086 0.0240197 -0.00202723)
(-0.0834217 0.000524242 0.00187056)
(-0.0834217 0.000524241 -0.00187056)
(-0.0833848 -0.181189 -0.0099862)
(-0.0833848 -0.181189 0.0099862)
(-0.134238 0.049249 0.00539411)
(-0.134238 0.049249 -0.00539411)
(-0.172346 0.180958 0.0211355)
(-0.172346 0.180958 -0.0211355)
(-0.144415 -0.100837 -0.00612351)
(-0.144415 -0.100837 0.00612351)
(-0.140943 -0.0977269 -0.00526686)
(-0.140943 -0.0977269 0.00526686)
(0.0697703 0.216811 0.0551361)
(0.0697703 0.216811 -0.0551361)
(-0.0306568 0.038642 0.00621942)
(-0.0306568 0.038642 -0.00621942)
(-0.110893 -0.350906 -0.0669624)
(-0.110893 -0.350906 0.0669624)
(-0.0371372 -0.0234231 -0.00235489)
(-0.0371371 -0.0234231 0.00235489)
(-0.153689 0.20764 0.0263622)
(-0.153689 0.20764 -0.0263622)
(-0.11481 0.0540909 0.00460567)
(-0.11481 0.0540909 -0.00460567)
(-0.124527 -0.140334 -0.00438793)
(-0.124527 -0.140334 0.00438793)
(-0.116842 -0.0908451 -0.00269835)
(-0.116842 -0.0908451 0.00269835)
(-0.18673 0.115647 0.0117773)
(-0.18673 0.115647 -0.0117773)
(-0.19153 -0.0896967 0.000625059)
(-0.19153 -0.0896967 -0.000625059)
(-0.17851 0.0993889 0.0118523)
(-0.17851 0.0993889 -0.0118523)
(-0.198416 -0.116183 -0.00333179)
(-0.198416 -0.116183 0.00333179)
(0.833947 0.00431058 0.00897442)
(0.833947 0.00431058 -0.00897442)
(-0.00807926 0.0379839 0.00723673)
(-0.00807926 0.0379839 -0.00723673)
(-0.0179364 -0.000937864 0.000405237)
(-0.0179364 -0.000937864 -0.000405237)
(-0.0118896 -0.0668811 -0.0085357)
(-0.0118896 -0.0668811 0.0085357)
(-0.0979505 0.146627 0.00853346)
(-0.0979505 0.146627 -0.00853346)
(0.0426855 0.0486163 0.0158052)
(0.0426855 0.0486163 -0.0158052)
(-0.105484 -0.0134687 0.00169811)
(-0.105484 -0.0134687 -0.00169811)
(-0.136224 -0.227158 -0.0120622)
(-0.136224 -0.227158 0.0120622)
(-0.050188 -0.297948 -0.0777696)
(-0.050188 -0.297948 0.0777696)
(-0.0109445 -0.00505396 -0.00348016)
(-0.0109445 -0.00505396 0.00348016)
(0.491841 0.0867594 0.0554099)
(0.49184 0.0867594 -0.0554099)
(-0.0069502 0.0127681 0.00245972)
(-0.0069502 0.0127681 -0.00245972)
(-0.0442157 0.264636 0.0738304)
(-0.0442157 0.264636 -0.0738304)
(0.521485 -0.0760484 -0.0539801)
(0.521485 -0.0760484 0.0539801)
(-0.0114865 0.00496349 0.00605125)
(-0.0114865 0.00496349 -0.00605125)
(-0.00681322 -0.0120656 0.000520073)
(-0.00681322 -0.0120656 -0.000520073)
(-0.0368913 0.061631 0.0046789)
(-0.0368913 0.061631 -0.0046789)
(0.152361 0.134036 0.054793)
(0.152361 0.134036 -0.054793)
(-0.0517509 -0.0216386 -0.00261226)
(-0.0517509 -0.0216386 0.00261226)
(-0.108089 -0.33646 -0.0443099)
(-0.108089 -0.33646 0.0443099)
(-0.102858 0.323644 0.0687877)
(-0.102858 0.323644 -0.0687877)
(-0.0370546 0.0219589 0.00564344)
(-0.0370546 0.0219589 -0.00564344)
(0.0919567 -0.210123 -0.0450088)
(0.0919567 -0.210123 0.0450088)
(-0.029591 -0.0376105 -0.00228696)
(-0.029591 -0.0376105 0.00228696)
(-0.00614577 -0.227519 -0.109608)
(-0.00614577 -0.227519 0.109608)
(-0.00245465 -0.00168088 -0.00222658)
(-0.00245465 -0.00168087 0.00222658)
(0.63856 0.0388304 0.0685655)
(0.63856 0.0388304 -0.0685655)
(-0.00208524 0.00298337 0.00276983)
(-0.00208524 0.00298337 -0.00276983)
(0.657857 -0.03479 -0.0759186)
(0.657857 -0.03479 0.0759186)
(-0.00900322 0.20372 0.0993325)
(-0.00900322 0.20372 -0.0993325)
(-0.00203932 -0.00266695 -0.000302211)
(-0.00203932 -0.00266695 0.000302211)
(-0.00281034 0.001746 0.00458741)
(-0.00281034 0.001746 -0.00458741)
(-0.0390146 0.132667 0.0115616)
(-0.0390146 0.132667 -0.0115616)
(0.381756 0.0356311 0.0147336)
(0.381756 0.0356311 -0.0147336)
(-0.0656686 -0.000874043 0.00126239)
(-0.0656686 -0.000874043 -0.00126239)
(-0.0581177 -0.178159 -0.0124419)
(-0.0581177 -0.178159 0.0124419)
(-0.012512 -0.401869 -0.168301)
(-0.012512 -0.401869 0.168301)
(-0.0035792 -0.00232807 -0.00269079)
(-0.0035792 -0.00232807 0.00269079)
(0.268065 0.108727 0.118797)
(0.268065 0.108727 -0.118797)
(-0.0025753 0.0040465 0.00372814)
(-0.0025753 0.0040465 -0.00372814)
(0.29973 -0.108335 -0.132526)
(0.29973 -0.108335 0.132526)
(-0.0243264 0.371223 0.153595)
(-0.0243264 0.371223 -0.153595)
(-0.00247404 -0.00363114 -0.000568536)
(-0.00247404 -0.00363114 0.000568536)
(-0.00399826 0.00255606 0.00578467)
(-0.00399826 0.00255606 -0.00578467)
(-0.060821 0.267164 0.0529543)
(-0.060821 0.267164 -0.0529543)
(-0.0451878 0.0388524 0.00526236)
(-0.0451878 0.0388524 -0.00526236)
(-0.064902 -0.275678 -0.0487284)
(-0.064902 -0.275678 0.0487284)
(-0.0449454 -0.038679 -0.00205776)
(-0.0449454 -0.038679 0.00205776)
(-0.139892 0.0296794 0.00437802)
(-0.139892 0.0296794 -0.00437802)
(-0.16273 0.176237 0.0169058)
(-0.16273 0.176237 -0.0169058)
(-0.152194 -0.123797 -0.00619073)
(-0.152194 -0.123797 0.00619073)
(-0.124028 -0.046062 -0.00276169)
(-0.124028 -0.046062 0.00276169)
(-0.0864638 0.198195 0.0175598)
(-0.0864638 0.198195 -0.0175598)
(-0.0857613 0.0071214 0.00259062)
(-0.0857613 0.0071214 -0.00259062)
(0.200468 -0.00331626 0.002709)
(0.200468 -0.00331626 -0.002709)
(-0.0841069 -0.160867 -0.010006)
(-0.0841069 -0.160867 0.010006)
(-0.0771756 0.220478 0.0160077)
(-0.0771756 0.220478 -0.0160077)
(-0.0704416 0.0105125 0.00230327)
(-0.0704416 0.0105125 -0.00230327)
(0.271948 -0.037754 0.0112477)
(0.271948 -0.037754 -0.0112477)
(-0.0524728 -0.122137 -0.00427161)
(-0.0524728 -0.122137 0.00427161)
(-0.0422484 0.0110296 0.00564597)
(-0.0422484 0.0110296 -0.00564597)
(-0.0611927 0.260399 0.0377344)
(-0.0611927 0.260399 -0.0377344)
(-0.0248404 -0.055161 -0.00181761)
(-0.0248404 -0.055161 0.00181761)
(0.374128 -0.0573247 -0.0155872)
(0.374128 -0.0573247 0.0155872)
(-0.022319 0.00589043 0.0058621)
(-0.022319 0.00589043 -0.0058621)
(-0.0371572 0.200614 0.0439267)
(-0.0371572 0.200614 -0.0439267)
(-0.0106101 -0.0289742 0.000207883)
(-0.0106101 -0.0289742 -0.000207883)
(0.613865 -0.034874 -0.0129679)
(0.613865 -0.034874 0.0129679)
(0.604731 0.0415422 0.0270776)
(0.604731 0.0415422 -0.0270776)
(-0.00986325 0.0289758 0.00300921)
(-0.00986325 0.0289758 -0.00300921)
(0.353245 0.0642021 0.0320992)
(0.353245 0.0642021 -0.0320992)
(-0.0236669 0.0588145 0.00445841)
(-0.0236669 0.0588145 -0.00445841)
(-0.021658 -0.00593147 -0.0029526)
(-0.021658 -0.00593147 0.0029526)
(-0.045286 -0.220443 -0.0402747)
(-0.045286 -0.220443 0.0402747)
(-0.0752853 -0.282473 -0.0322508)
(-0.0752853 -0.282473 0.0322508)
(-0.0439333 -0.012177 -0.00297902)
(-0.0439333 -0.012177 0.00297902)
(-0.14338 0.191166 0.0163384)
(-0.14338 0.191166 -0.0163384)
(-0.0450695 -0.02822 0.00348377)
(-0.0450695 -0.02822 -0.00348377)
(-0.124981 0.0158697 0.00359165)
(-0.124981 0.0158697 -0.00359165)
(-0.132156 -0.153736 -0.00529118)
(-0.132156 -0.153736 0.00529118)
(-0.175876 0.12593 0.0128539)
(-0.175876 0.12593 -0.0128539)
(-0.163392 0.0153462 0.00436052)
(-0.163392 0.0153462 -0.00436052)
(-0.165505 0.118077 0.0113746)
(-0.165505 0.118077 -0.0113746)
(-0.164381 -0.00621242 0.00209343)
(-0.164381 -0.00621242 -0.00209343)
(0.146312 0.205151 0.0570596)
(0.146312 0.205151 -0.0570596)
(-0.0161677 0.0234218 0.00417399)
(-0.0161677 0.0234218 -0.00417399)
(-0.0964294 -0.362772 -0.0668171)
(-0.0964294 -0.362772 0.0668171)
(-0.0217235 -0.0130483 -0.00193595)
(-0.0217235 -0.0130483 0.00193595)
(-0.0930346 0.331133 0.0679408)
(-0.0930346 0.331133 -0.0679408)
(-0.0221616 0.0127619 0.00465732)
(-0.0221616 0.0127619 -0.00465732)
(0.178842 -0.203117 -0.053533)
(0.178842 -0.203117 0.053533)
(-0.0158208 -0.0224633 -0.00101027)
(-0.0158208 -0.0224633 0.00101027)
(-0.145047 0.118577 0.0226638)
(-0.145047 0.118577 -0.0226638)
(-0.131677 0.100097 0.00894479)
(-0.131677 0.100097 -0.00894479)
(-0.181722 -0.186089 -0.0107112)
(-0.181722 -0.186089 0.0107112)
(-0.137798 -0.044637 -0.000950186)
(-0.137798 -0.044637 0.000950186)
(-0.124939 0.178135 0.0293636)
(-0.124939 0.178135 -0.0293636)
(-0.107539 0.084195 0.00543997)
(-0.107539 0.084195 -0.00543997)
(-0.165681 -0.208164 -0.017595)
(-0.165681 -0.208164 0.017595)
(-0.115416 -0.0553367 -0.00232619)
(-0.115416 -0.0553367 0.00232619)
(-0.0937006 0.254777 0.0400595)
(-0.0937006 0.254777 -0.0400595)
(-0.0698598 0.0519637 0.00666925)
(-0.0698598 0.0519637 -0.00666925)
(-0.0998746 -0.252247 -0.0308935)
(-0.0998746 -0.252247 0.0308935)
(-0.0689161 -0.0540436 -0.00283515)
(-0.0689161 -0.0540436 0.00283515)
(-0.130113 0.213612 0.0160582)
(-0.130113 0.213612 -0.0160582)
(0.0351161 -0.0401636 -0.00207806)
(0.0351161 -0.0401636 0.00207806)
(-0.106894 0.0163204 0.00150487)
(-0.106894 0.0163204 -0.00150487)
(-0.112304 -0.148347 -0.00240837)
(-0.112304 -0.148347 0.00240837)
(-0.140533 0.240382 0.0213418)
(-0.140533 0.240382 -0.0213418)
(-0.0998706 0.0438687 0.0043479)
(-0.0998706 0.0438687 -0.0043479)
(-0.0666215 -0.145595 -0.00501743)
(-0.0666215 -0.145595 0.00501743)
(-0.0985001 -0.0920526 -0.000897577)
(-0.0985001 -0.0920525 0.000897577)
(-0.114099 0.29148 0.0294869)
(-0.114099 0.29148 -0.0294869)
(-0.0686366 0.0266554 0.00365353)
(-0.0686366 0.0266554 -0.00365353)
(0.0764538 -0.141349 -0.0135678)
(0.0764538 -0.141349 0.0135678)
(-0.0549757 -0.0766931 -0.00160933)
(-0.0549757 -0.0766931 0.00160933)
(-0.0726682 0.115674 0.0101563)
(-0.0726682 0.115674 -0.0101563)
(0.0936545 0.0810047 0.02704)
(0.0936545 0.0810047 -0.02704)
(-0.0911943 -0.0196516 0.000102519)
(-0.0911943 -0.0196516 -0.000102519)
(-0.123972 -0.263679 -0.0212062)
(-0.123972 -0.263679 0.0212062)
(-0.126533 0.247524 0.0205705)
(-0.126533 0.247524 -0.0205705)
(-0.0956451 0.026859 0.00289226)
(-0.0956451 0.026859 -0.00289226)
(0.0362412 -0.0888759 -0.00409129)
(0.0362412 -0.0888759 0.00409129)
(-0.0906546 -0.116682 -0.00304893)
(-0.0906546 -0.116682 0.00304893)
(0.0504689 0.252802 0.0746782)
(0.0504689 0.252802 -0.0746782)
(-0.01083 0.0128465 0.00499245)
(-0.01083 0.0128465 -0.00499245)
(-0.0578536 -0.353812 -0.0909565)
(-0.0578536 -0.353812 0.0909565)
(-0.0125016 -0.00952088 -0.00135837)
(-0.0125016 -0.00952089 0.00135837)
(-0.072262 0.328751 0.0884475)
(-0.072262 0.328751 -0.0884475)
(0.0807603 -0.263114 -0.0770822)
(0.0807603 -0.263114 0.0770822)
(-0.013159 0.00986352 0.00427248)
(-0.013159 0.00986353 -0.00427248)
(-0.0104385 -0.0121464 -0.00197224)
(-0.0104385 -0.0121464 0.00197224)
(-0.110483 0.260221 0.0216566)
(-0.110483 0.260221 -0.0216566)
(-0.0837226 0.0230473 0.00275589)
(-0.0837226 0.0230473 -0.00275589)
(0.0927018 -0.0807767 -0.00709698)
(0.0927018 -0.0807767 0.00709698)
(-0.0726612 -0.109836 -0.00242274)
(-0.0726612 -0.109836 0.00242274)
(-0.200033 0.0489967 0.0080595)
(-0.200033 0.0489967 -0.0080595)
(-0.192715 0.0948838 0.0121177)
(-0.192715 0.0948838 -0.0121177)
(0.693918 0.0213836 0.0189255)
(0.693918 0.0213836 -0.0189255)
(-0.00880458 0.0472827 0.00425095)
(-0.00880458 0.0472827 -0.00425095)
(-0.0282817 -0.00148481 -0.00164335)
(-0.0282817 -0.0014848 0.00164335)
(-0.0244468 -0.137866 -0.0163378)
(-0.0244468 -0.137866 0.0163378)
(-0.059807 -0.231247 -0.0220995)
(-0.059807 -0.231247 0.0220995)
(-0.0506351 -0.00646174 1.21688e-05)
(-0.0506351 -0.00646173 -1.21688e-05)
(0.422241 0.0489526 0.0182237)
(0.422241 0.0489526 -0.0182237)
(-0.0224012 0.0778129 0.00701586)
(-0.0224012 0.0778129 -0.00701586)
(0.85394 0.0126004 0.0156196)
(0.85394 0.0126004 -0.0156196)
(-0.00311486 0.0163283 0.00193902)
(-0.00311486 0.0163283 -0.00193902)
(-0.0106798 -0.00115204 -0.00193654)
(-0.0106798 -0.00115204 0.00193654)
(-0.0123922 -0.0815868 -0.0177304)
(-0.0123922 -0.0815868 0.0177304)
(-0.0115425 0.0791684 0.022612)
(-0.0115425 0.0791684 -0.022612)
(0.84859 -0.00809463 -0.00405404)
(0.84859 -0.00809463 0.00405404)
(-0.0117053 0.00195788 0.00389189)
(-0.0117053 0.00195788 -0.00389189)
(-0.00584012 -0.0183648 0.000179869)
(-0.00584012 -0.0183648 -0.000179869)
(-0.0398288 0.10568 0.00911356)
(-0.0398288 0.10568 -0.00911356)
(0.309553 0.0496974 0.0142557)
(0.309553 0.0496974 -0.0142557)
(-0.0671412 -0.00870631 -0.000115597)
(-0.0671412 -0.00870631 0.000115597)
(-0.0792297 -0.235677 -0.0172797)
(-0.0792297 -0.235677 0.0172797)
(-0.119665 0.267964 0.0269437)
(-0.119665 0.267964 -0.0269437)
(-0.0795011 0.0422532 0.00394295)
(-0.0795011 0.0422532 -0.00394295)
(-0.0483698 -0.184658 -0.0157704)
(-0.0483698 -0.184658 0.0157704)
(-0.0737486 -0.0718149 -0.00284023)
(-0.0737486 -0.0718149 0.00284023)
(-0.19851 -0.0309425 0.00387078)
(-0.19851 -0.0309425 -0.00387078)
(-0.188575 -0.00729066 0.00223432)
(-0.188575 -0.00729064 -0.00223432)
)
;

boundaryField
{
    frontAndBack
    {
        type            empty;
    }
    movingWall
    {
        type            fixedValue;
        value           uniform (1 0 0);
    }
    fixedWalls
    {
        type            noSlip;
    }
}


// ************************************************************************* //
